LAMMPS data file from restart file: timestep = 0, procs = 1

500 atoms
499 bonds
498 angles

4 atom types
1 bond types
1 angle types

-50 50 xlo xhi 
-50 50 ylo yhi 
-50 50 zlo zhi 

Masses 

 1 1 
 2 1 
 3 1 
 4 1 

Atoms 

1 1 1 7.82637e-06 0.131538 0.755605 0 0 0 
2 1 1 -1.05745 0.412627 0.64257 0 0 0 
3 1 1 -1.02605 0.57154 1.73058 0 0 0 
4 1 1 -1.42805 -0.267159 1.14322 0 0 0 
5 1 1 -0.486168 -0.676907 1.53688 0 0 0 
6 1 1 -1.0391 -0.744699 0.588373 0 0 0 
7 1 1 -0.859538 -0.705069 1.67289 0 0 0 
8 1 1 -1.78792 -0.880356 1.10953 0 0 0 
9 1 1 -0.762084 -0.830698 1.50347 0 0 0 
10 1 1 0.208763 -0.397165 1.78544 0 0 0 
11 1 1 -0.200309 -1.37213 1.48195 0 0 0 
12 1 1 0.262794 -1.5885 0.507923 0 0 0 
13 1 1 -0.0461358 -1.64127 1.56233 0 0 0 
14 1 1 -0.648975 -2.51549 1.84926 0 0 0 
15 1 1 -0.741302 -2.80705 0.792627 0 0 0 
16 1 1 -0.679462 -3.61232 1.53943 0 0 0 
17 1 1 0.0958091 -3.37401 0.796353 0 0 0 
18 1 1 -0.378965 -2.48723 0.351137 0 0 0 
19 1 1 -0.377718 -2.51817 -0.748427 0 0 0 
20 1 1 -0.88852 -1.94126 0.0365923 0 0 0 
21 1 1 -0.0518988 -2.03336 -0.671633 0 0 0 
22 1 1 -0.0312849 -3.01085 -1.17569 0 0 0 
23 1 1 0.872756 -2.56666 -1.61773 0 0 0 
24 1 1 1.4953 -3.11754 -0.897342 0 0 0 
25 1 1 0.81682 -2.83106 -1.7144 0 0 0 
26 1 1 0.0767465 -2.72683 -0.907293 0 0 0 
27 1 1 -0.0782098 -1.74475 -0.436639 0 0 0 
28 1 1 0.47225 -0.793529 -0.390061 0 0 0 
29 1 1 0.719949 -0.979126 -1.44562 0 0 0 
30 1 1 1.02132 -0.858568 -2.49664 0 0 0 
31 1 1 -0.0767966 -0.889782 -2.55291 0 0 0 
32 1 1 -0.0961914 -0.847908 -3.65194 0 0 0 
33 1 1 -0.911858 -0.817024 -2.91456 0 0 0 
34 1 1 -0.760573 -0.720035 -3.99978 0 0 0 
35 1 1 0.223427 -0.228366 -4.00223 0 0 0 
36 1 1 -0.404485 0.331257 -3.29332 0 0 0 
37 1 1 0.534031 -0.233234 -3.39597 0 0 0 
38 1 1 0.336278 -0.188308 -4.47711 0 0 0 
39 1 1 1.04867 0.043577 -5.28255 0 0 0 
40 1 1 1.12038 -0.51829 -6.22551 0 0 0 
41 1 1 1.15905 -0.479443 -5.12687 0 0 0 
42 1 1 0.992202 -0.88919 -6.13398 0 0 0 
43 1 1 0.435518 -1.4786 -6.87742 0 0 0 
44 1 1 0.43523 -1.48045 -7.97742 0 0 0 
45 1 1 0.997858 -1.95446 -7.15964 0 0 0 
46 1 1 0.657661 -1.0336 -6.66338 0 0 0 
47 1 1 -0.393914 -1.1215 -6.97396 0 0 0 
48 1 1 0.206329 -1.99312 -6.67398 0 0 0 
49 1 1 0.654195 -2.68426 -5.94477 0 0 0 
50 1 1 -0.287503 -2.13049 -6.07339 0 0 0 
51 1 1 -1.13326 -1.95765 -5.39161 0 0 0 
52 1 1 -0.91092 -1.49777 -4.4174 0 0 0 
53 1 1 -1.48698 -1.7762 -5.31218 0 0 0 
54 1 1 -0.416917 -1.55071 -5.431 0 0 0 
55 1 1 -0.570667 -1.54924 -6.5202 0 0 0 
56 1 1 -0.582294 -2.63305 -6.70791 0 0 0 
57 1 1 0.2039 -3.27733 -7.12838 0 0 0 
58 1 1 0.493176 -3.7205 -6.16405 0 0 0 
59 1 1 0.692409 -2.88482 -6.85104 0 0 0 
60 1 1 0.90413 -2.65814 -5.79567 0 0 0 
61 1 1 0.902535 -2.6479 -4.69572 0 0 0 
62 1 1 0.822897 -2.60032 -3.59964 0 0 0 
63 1 1 0.769629 -2.80682 -4.67877 0 0 0 
64 1 1 0.807134 -2.21598 -3.75168 0 0 0 
65 1 1 0.649692 -1.86752 -4.78308 0 0 0 
66 1 1 0.360814 -2.27614 -3.80349 0 0 0 
67 1 1 -0.0698322 -3.21177 -3.41731 0 0 0 
68 1 1 -0.907289 -2.49856 -3.41641 0 0 0 
69 1 1 -0.271623 -1.65157 -3.71395 0 0 0 
70 1 1 0.325215 -2.523 -4.0212 0 0 0 
71 1 1 1.36592 -2.82245 -4.21423 0 0 0 
72 1 1 1.40036 -2.77619 -5.31271 0 0 0 
73 1 1 1.00209 -2.5191 -4.3201 0 0 0 
74 1 1 0.283296 -2.82961 -3.54749 0 0 0 
75 1 1 -0.806844 -2.7508 -3.42346 0 0 0 
76 1 1 -0.395215 -2.85347 -2.40856 0 0 0 
77 1 1 -0.107298 -1.97193 -1.81696 0 0 0 
78 1 1 -0.400621 -2.28143 -0.802973 0 0 0 
79 1 1 -0.994028 -3.11186 -1.21315 0 0 0 
80 1 1 -0.741164 -3.84183 -0.430081 0 0 0 
81 1 1 -1.76401 -3.68925 -0.0552403 0 0 0 
82 1 1 -1.73566 -3.59551 1.04039 0 0 0 
83 1 1 -0.862788 -4.21577 1.29215 0 0 0 
84 1 1 -0.749414 -4.07513 0.207083 0 0 0 
85 1 1 -1.12191 -3.83976 1.21497 0 0 0 
86 1 1 -0.885461 -4.04651 2.26918 0 0 0 
87 1 1 -0.757817 -3.8391 3.34188 0 0 0 
88 1 1 -1.27837 -3.25118 4.11219 0 0 0 
89 1 1 -0.82061 -2.73124 3.25772 0 0 0 
90 1 1 -1.76161 -2.45982 3.75857 0 0 0 
91 1 1 -2.35522 -2.27639 2.85084 0 0 0 
92 1 1 -1.46641 -2.68326 2.34639 0 0 0 
93 1 1 -1.26506 -1.77582 1.75817 0 0 0 
94 1 1 -0.610905 -2.1972 2.53568 0 0 0 
95 1 1 0.0919559 -3.03753 2.63486 0 0 0 
96 1 1 -0.953053 -3.07665 2.29364 0 0 0 
97 1 1 -0.638631 -3.7723 1.50168 0 0 0 
98 1 1 -0.801351 -3.73296 0.414492 0 0 0 
99 1 1 -1.52706 -4.53291 0.622885 0 0 0 
100 1 1 -1.11467 -5.34608 0.00750872 0 0 0 
101 1 1 -1.12781 -5.38851 -1.09159 0 0 0 
102 1 1 -0.652518 -5.52849 -2.07369 0 0 0 
103 1 1 -0.91964 -4.46925 -2.20272 0 0 0 
104 1 1 -1.26938 -4.50105 -1.16029 0 0 0 
105 1 1 -2.1855 -3.95169 -1.42284 0 0 0 
106 1 1 -1.41396 -4.70819 -1.21685 0 0 0 
107 1 1 -1.46969 -5.14384 -2.22537 0 0 0 
108 1 1 -1.60776 -5.77343 -3.11675 0 0 0 
109 1 1 -1.82293 -6.54166 -3.87406 0 0 0 
110 1 1 -1.44022 -6.49552 -4.90431 0 0 0 
111 1 1 -2.51948 -6.66637 -4.77784 0 0 0 
112 1 1 -1.72892 -6.32312 -5.46134 0 0 0 
113 1 1 -2.6775 -6.25711 -6.01437 0 0 0 
114 1 1 -2.94472 -6.8445 -5.12355 0 0 0 
115 1 1 -2.55515 -7.06953 -6.12734 0 0 0 
116 1 1 -1.71557 -7.76392 -6.27874 0 0 0 
117 1 1 -1.01869 -6.93016 -6.10784 0 0 0 
118 1 1 -0.331032 -6.97619 -5.25052 0 0 0 
119 1 1 -1.19936 -6.66987 -4.64871 0 0 0 
120 1 1 -1.59776 -6.70667 -5.67337 0 0 0 
121 1 1 -2.61451 -6.30208 -5.56136 0 0 0 
122 1 1 -2.26507 -7.242 -5.10919 0 0 0 
123 1 1 -2.26434 -7.23903 -6.20919 0 0 0 
124 1 1 -1.68998 -6.40963 -6.6476 0 0 0 
125 1 1 -1.69151 -6.411 -5.5476 0 0 0 
126 1 1 -0.972807 -6.40703 -6.38034 0 0 0 
127 1 1 -1.10441 -7.32488 -5.78853 0 0 0 
128 1 1 -1.90776 -6.86815 -6.3852 0 0 0 
129 1 1 -2.18717 -7.4674 -5.50609 0 0 0 
130 1 1 -1.73689 -8.21351 -6.17734 0 0 0 
131 1 1 -1.58408 -8.49689 -5.12551 0 0 0 
132 1 1 -0.937061 -8.13193 -5.93678 0 0 0 
133 1 1 -1.40709 -8.62977 -5.07583 0 0 0 
134 1 1 -1.34417 -8.3599 -4.01131 0 0 0 
135 1 1 -1.4703 -8.25397 -5.09891 0 0 0 
136 1 1 -0.491198 -8.58889 -4.72582 0 0 0 
137 1 1 -0.60026 -7.68992 -5.3503 0 0 0 
138 1 1 -0.750826 -6.99661 -6.19092 0 0 0 
139 1 1 -0.525388 -8.04005 -5.9256 0 0 0 
140 1 1 -0.651726 -7.42328 -5.02359 0 0 0 
141 1 1 -0.0298067 -7.37898 -4.11736 0 0 0 
142 1 1 0.729117 -7.45922 -3.32515 0 0 0 
143 1 1 0.92309 -7.87328 -2.32469 0 0 0 
144 1 1 0.0848258 -7.24918 -2.66792 0 0 0 
145 1 1 0.33529 -6.74292 -3.61183 0 0 0 
146 1 1 0.358121 -6.70805 -4.71104 0 0 0 
147 1 1 0.324949 -5.97207 -3.8942 0 0 0 
148 1 1 0.886673 -5.55506 -3.04534 0 0 0 
149 1 1 0.291648 -6.22757 -3.68069 0 0 0 
150 1 1 0.540792 -7.08978 -4.3167 0 0 0 
151 1 1 0.558299 -8.03728 -4.87522 0 0 0 
152 1 1 0.428559 -8.18155 -3.79247 0 0 0 
153 1 1 -0.158357 -8.598 -2.96054 0 0 0 
154 1 1 -0.531212 -7.78959 -3.60664 0 0 0 
155 1 1 0.0211226 -7.2874 -4.41456 0 0 0 
156 1 1 -1.04857 -7.46457 -4.59998 0 0 0 
157 1 1 -1.85384 -7.96145 -4.03904 0 0 0 
158 1 1 -1.99294 -8.41861 -3.04826 0 0 0 
159 1 1 -1.41403 -7.48465 -2.99756 0 0 0 
160 1 1 -1.02522 -7.95328 -3.91365 0 0 0 
161 1 1 -1.77872 -8.23442 -4.66412 0 0 0 
162 1 1 -1.96154 -7.81917 -3.66205 0 0 0 
163 1 1 -2.85814 -7.98174 -3.04587 0 0 0 
164 1 1 -3.79229 -8.5592 -3.10833 0 0 0 
165 1 1 -4.51716 -8.22281 -2.35242 0 0 0 
166 1 1 -5.22911 -7.46682 -1.98963 0 0 0 
167 1 1 -6.2654 -7.1074 -1.90642 0 0 0 
168 1 1 -6.90985 -6.5593 -1.20337 0 0 0 
169 1 1 -6.02025 -6.08281 -0.765688 0 0 0 
170 1 1 -6.0435 -5.13943 -1.33093 0 0 0 
171 1 1 -6.53479 -6.12245 -1.37908 0 0 0 
172 1 1 -6.64813 -6.96069 -2.08229 0 0 0 
173 1 1 -5.62162 -7.33206 -1.94681 0 0 0 
174 1 1 -4.75505 -7.67413 -1.36196 0 0 0 
175 1 1 -5.81969 -7.40387 -1.42118 0 0 0 
176 1 1 -6.37374 -8.29356 -1.08729 0 0 0 
177 1 1 -6.41047 -8.32229 -2.1863 0 0 0 
178 1 1 -5.85594 -7.55507 -2.74654 0 0 0 
179 1 1 -6.46221 -6.64855 -2.89027 0 0 0 
180 1 1 -7.01866 -6.72884 -3.83574 0 0 0 
181 1 1 -6.18767 -6.65055 -3.11928 0 0 0 
182 1 1 -6.86566 -7.50206 -3.27816 0 0 0 
183 1 1 -6.15482 -7.90547 -2.54197 0 0 0 
184 1 1 -5.39858 -8.0493 -1.75622 0 0 0 
185 1 1 -4.89645 -8.79849 -2.38596 0 0 0 
186 1 1 -5.47133 -8.63442 -3.30931 0 0 0 
187 1 1 -4.94425 -8.56081 -2.34662 0 0 0 
188 1 1 -5.17773 -9.40279 -3.01487 0 0 0 
189 1 1 -6.1579 -8.99056 -3.29653 0 0 0 
190 1 1 -6.15758 -9.01981 -4.39614 0 0 0 
191 1 1 -6.44092 -9.81748 -3.69367 0 0 0 
192 1 1 -6.42725 -10.3808 -2.74894 0 0 0 
193 1 1 -5.32774 -10.3514 -2.73405 0 0 0 
194 1 1 -4.85507 -10.0918 -1.77528 0 0 0 
195 1 1 -4.28595 -10.4875 -2.6294 0 0 0 
196 1 1 -4.30845 -11.5654 -2.41116 0 0 0 
197 1 1 -3.24808 -11.5232 -2.70071 0 0 0 
198 1 1 -3.47586 -11.5497 -1.62488 0 0 0 
199 1 1 -4.47119 -11.8323 -1.2514 0 0 0 
200 1 1 -4.25173 -10.826 -0.865063 0 0 0 
201 1 1 -4.92642 -11.5167 -1.39212 0 0 0 
202 1 1 -5.20248 -12.5731 -1.5254 0 0 0 
203 1 1 -5.31621 -11.9827 -2.44655 0 0 0 
204 1 1 -5.95212 -11.3216 -3.05365 0 0 0 
205 1 1 -5.96404 -11.2916 -1.95413 0 0 0 
206 1 1 -5.0917 -10.6254 -2.02651 0 0 0 
207 1 1 -4.97789 -11.3192 -1.18046 0 0 0 
208 1 1 -4.75025 -11.2368 -0.107428 0 0 0 
209 1 1 -4.30179 -10.5274 -0.818567 0 0 0 
210 1 1 -4.35249 -10.3608 0.267563 0 0 0 
211 1 1 -5.43196 -10.2093 0.415154 0 0 0 
212 1 1 -6.50792 -10.3451 0.599203 0 0 0 
213 1 1 -6.00349 -9.64798 1.28443 0 0 0 
214 1 1 -5.55243 -10.4253 0.650119 0 0 0 
215 1 1 -6.37058 -10.8603 0.0573156 0 0 0 
216 1 1 -6.46702 -10.6879 1.13943 0 0 0 
217 1 1 -5.38046 -10.7776 0.993365 0 0 0 
218 1 1 -4.90026 -10.7726 0.00372836 0 0 0 
219 1 1 -3.89795 -10.5856 0.416524 0 0 0 
220 1 1 -4.96434 -10.5162 0.155794 0 0 0 
221 1 1 -5.02881 -11.444 -0.431665 0 0 0 
222 1 1 -5.14836 -11.4717 0.661467 0 0 0 
223 1 1 -5.08232 -11.4077 -0.434682 0 0 0 
224 1 1 -4.71089 -10.4985 0.0606432 0 0 0 
225 1 1 -5.49306 -11.1804 -0.304192 0 0 0 
226 1 1 -4.73046 -10.4088 -0.486032 0 0 0 
227 1 1 -3.78076 -10.6911 -0.00808142 0 0 0 
228 1 1 -3.73403 -10.7667 -1.10448 0 0 0 
229 1 1 -3.77828 -9.98637 -0.330409 0 0 0 
230 1 1 -4.32023 -9.70738 -1.24608 0 0 0 
231 1 1 -3.7077 -10.1648 -0.455143 0 0 0 
232 1 1 -3.64769 -11.063 -1.08724 0 0 0 
233 1 1 -4.42126 -10.8216 -0.343409 0 0 0 
234 1 1 -4.6207 -11.1613 0.683647 0 0 0 
235 1 1 -4.52404 -10.7891 1.71424 0 0 0 
236 1 1 -4.54414 -10.7952 2.81404 0 0 0 
237 1 1 -4.0746 -9.85956 2.47623 0 0 0 
238 1 1 -4.33113 -9.74258 3.53949 0 0 0 
239 1 1 -4.7207 -10.6817 3.95945 0 0 0 
240 1 1 -4.50592 -11.0386 4.97751 0 0 0 
241 1 1 -4.40509 -11.0557 6.07274 0 0 0 
242 1 1 -3.44249 -10.5237 6.09263 0 0 0 
243 1 1 -3.41491 -10.7484 5.01617 0 0 0 
244 1 1 -3.41588 -9.75355 5.4856 0 0 0 
245 1 1 -3.28409 -10.8456 5.48575 0 0 0 
246 1 1 -3.28853 -11.7891 4.92016 0 0 0 
247 1 1 -3.60537 -12.4811 4.12597 0 0 0 
248 1 1 -2.89539 -12.316 4.94979 0 0 0 
249 1 1 -2.70436 -11.2542 4.73484 0 0 0 
250 1 1 -3.29425 -12.0949 4.34082 0 0 0 
251 1 1 -3.7877 -11.579 5.17771 0 0 0 
252 1 1 -3.68793 -10.6088 4.66907 0 0 0 
253 1 1 -3.2887 -9.9247 3.90579 0 0 0 
254 1 1 -3.20061 -9.78636 4.9935 0 0 0 
255 1 1 -3.4216 -10.1444 6.00984 0 0 0 
256 1 1 -2.37855 -10.4895 6.06448 0 0 0 
257 1 1 -2.59118 -10.6918 5.00436 0 0 0 
258 1 1 -1.54503 -10.5733 4.68572 0 0 0 
259 1 1 -1.73841 -11.6561 4.69754 0 0 0 
260 1 1 -0.717825 -11.2981 4.89811 0 0 0 
261 1 1 -1.43498 -11.3849 4.06856 0 0 0 
262 1 1 -0.442674 -10.9529 4.2652 0 0 0 
263 1 1 0.640452 -11.1093 4.37649 0 0 0 
264 1 1 0.123794 -10.1561 4.56244 0 0 0 
265 1 1 0.0958508 -10.8169 5.44139 0 0 0 
266 1 1 0.576135 -9.92508 5.87025 0 0 0 
267 1 1 0.688764 -9.9699 4.77695 0 0 0 
268 1 1 0.681256 -9.72893 5.8502 0 0 0 
269 1 1 1.462 -8.9594 5.75929 0 0 0 
270 1 1 2.05001 -8.03177 5.69813 0 0 0 
271 1 1 2.46459 -7.70942 4.73158 0 0 0 
272 1 1 1.74008 -6.92379 4.99209 0 0 0 
273 1 1 1.33821 -6.16164 4.30825 0 0 0 
274 1 1 0.9565 -6.36153 3.29616 0 0 0 
275 1 1 0.984475 -6.901 2.33794 0 0 0 
276 1 1 0.663704 -7.88385 2.7136 0 0 0 
277 1 1 1.61881 -8.29544 2.35533 0 0 0 
278 1 1 0.912086 -7.46357 2.21916 0 0 0 
279 1 1 -0.0943908 -7.17166 2.55351 0 0 0 
280 1 1 -0.0773504 -6.8883 3.61625 0 0 0 
281 1 1 -1.04285 -6.36991 3.71158 0 0 0 
282 1 1 -1.13093 -6.02477 4.75231 0 0 0 
283 1 1 -0.996573 -5.3981 3.8583 0 0 0 
284 1 1 -1.93139 -5.56088 3.30187 0 0 0 
285 1 1 -1.4321 -6.13704 4.09481 0 0 0 
286 1 1 -1.62593 -6.924 4.83853 0 0 0 
287 1 1 -1.83113 -6.73804 5.90311 0 0 0 
288 1 1 -2.54262 -6.55423 6.72164 0 0 0 
289 1 1 -2.2335 -7.60948 6.75156 0 0 0 
290 1 1 -1.41748 -7.59293 7.489 0 0 0 
291 1 1 -1.96383 -8.51265 7.74515 0 0 0 
292 1 1 -1.91514 -8.3965 6.65239 0 0 0 
293 1 1 -1.47696 -7.90549 5.77096 0 0 0 
294 1 1 -0.945649 -8.09285 6.71574 0 0 0 
295 1 1 -1.11786 -8.22817 7.79371 0 0 0 
296 1 1 -1.62059 -7.51278 8.46115 0 0 0 
297 1 1 -2.19182 -7.54748 7.52174 0 0 0 
298 1 1 -1.77067 -8.26641 6.80356 0 0 0 
299 1 1 -2.07734 -7.70385 5.90943 0 0 0 
300 1 1 -2.18297 -7.81886 6.99829 0 0 0 
301 1 1 -1.69056 -7.68773 7.97314 0 0 0 
302 1 1 -1.66787 -7.89851 9.05252 0 0 0 
303 1 1 -1.90891 -7.92789 7.97966 0 0 0 
304 1 1 -1.78748 -7.27991 8.86022 0 0 0 
305 1 1 -1.03256 -6.8075 8.21452 0 0 0 
306 1 1 -1.3297 -7.86645 8.23307 0 0 0 
307 1 1 -1.39372 -7.00299 7.55459 0 0 0 
308 1 1 -1.86177 -6.55432 8.4432 0 0 0 
309 1 1 -1.74421 -5.48285 8.66255 0 0 0 
310 1 1 -2.20035 -5.39434 7.6655 0 0 0 
311 1 1 -1.12808 -5.54875 7.85626 0 0 0 
312 1 1 -0.0564339 -5.31455 7.77419 0 0 0 
313 1 1 0.698425 -5.16249 6.98866 0 0 0 
314 1 1 0.211043 -5.47865 6.05458 0 0 0 
315 1 1 -0.140292 -4.83555 6.87494 0 0 0 
316 1 1 -1.1861 -5.07988 7.11281 0 0 0 
317 1 1 -1.2221 -5.05495 6.01368 0 0 0 
318 1 1 -0.735065 -5.15769 5.03274 0 0 0 
319 1 1 -0.120615 -5.83284 5.64644 0 0 0 
320 1 1 -0.115669 -5.82618 4.54647 0 0 0 
321 1 1 -0.815835 -6.66739 4.65661 0 0 0 
322 1 1 0.0105994 -7.04421 4.03611 0 0 0 
323 1 1 0.446305 -8.04404 3.89298 0 0 0 
324 1 1 -0.0270047 -8.27705 4.85822 0 0 0 
325 1 1 0.524204 -8.47452 3.927 0 0 0 
326 1 1 0.603463 -8.35724 5.01786 0 0 0 
327 1 1 0.396682 -8.04719 6.0528 0 0 0 
328 1 1 1.29888 -7.42123 5.98796 0 0 0 
329 1 1 2.36774 -7.26975 5.77681 0 0 0 
330 1 1 3.05118 -8.1297 5.71841 0 0 0 
331 1 1 2.68197 -8.849 4.97255 0 0 0 
332 1 1 2.65692 -8.92363 6.06973 0 0 0 
333 1 1 2.99384 -8.04066 5.50684 0 0 0 
334 1 1 2.86498 -7.85326 6.58307 0 0 0 
335 1 1 3.03604 -7.64459 5.51668 0 0 0 
336 1 1 3.21724 -6.63787 5.92125 0 0 0 
337 1 1 2.74397 -6.92185 6.87276 0 0 0 
338 1 1 3.63917 -6.77233 6.25125 0 0 0 
339 1 1 3.7059 -7.63103 5.56701 0 0 0 
340 1 1 4.64015 -7.13769 5.26075 0 0 0 
341 1 1 4.85521 -7.24641 4.18747 0 0 0 
342 1 1 3.85876 -6.78093 4.16684 0 0 0 
343 1 1 3.99369 -7.02183 3.10206 0 0 0 
344 1 1 3.31999 -7.52197 2.39073 0 0 0 
345 1 1 2.22855 -7.65523 2.42246 0 0 0 
346 1 1 2.27212 -7.58522 1.32555 0 0 0 
347 1 1 1.52883 -7.96019 2.04453 0 0 0 
348 1 1 0.653343 -8.13535 1.402 0 0 0 
349 1 1 0.488299 -8.4228 2.45087 0 0 0 
350 1 1 -0.497697 -8.73454 2.07586 0 0 0 
351 1 1 -1.03984 -9.69151 2.09271 0 0 0 
352 1 1 -1.99207 -10.1512 1.78951 0 0 0 
353 1 1 -2.46138 -9.96987 2.7677 0 0 0 
354 1 1 -3.2833 -9.98162 2.03673 0 0 0 
355 1 1 -3.10921 -9.94652 3.1223 0 0 0 
356 1 1 -4.03023 -10.075 3.70983 0 0 0 
357 1 1 -3.28288 -9.90768 4.49943 0 0 0 
358 1 1 -2.4805 -9.26749 4.89481 0 0 0 
359 1 1 -3.4745 -9.60314 4.56421 0 0 0 
360 1 1 -3.64473 -9.74598 3.48689 0 0 0 
361 1 1 -3.49308 -10.8345 3.44147 0 0 0 
362 1 1 -4.46956 -10.7526 2.94168 0 0 0 
363 1 1 -4.8141 -11.7486 3.25674 0 0 0 
364 1 1 -5.90813 -11.658 3.32655 0 0 0 
365 1 1 -6.17712 -12.7181 3.2086 0 0 0 
366 1 1 -6.35044 -11.6925 2.85053 0 0 0 
367 1 1 -6.51647 -10.8253 2.19458 0 0 0 
368 1 1 -6.72464 -10.8656 1.11521 0 0 0 
369 1 1 -6.62759 -9.81047 1.41049 0 0 0 
370 1 1 -7.19474 -10.2089 0.55635 0 0 0 
371 1 1 -6.38258 -10.6538 -0.0374033 0 0 0 
372 1 1 -5.90864 -11.6419 -0.132019 0 0 0 
373 1 1 -5.8493 -11.1657 0.857804 0 0 0 
374 1 1 -5.21862 -11.6269 1.63214 0 0 0 
375 1 1 -5.22827 -11.6404 2.73201 0 0 0 
376 1 1 -4.45795 -11.9684 3.44548 0 0 0 
377 1 1 -3.92426 -12.6238 4.14949 0 0 0 
378 1 1 -2.87327 -12.9476 4.12593 0 0 0 
379 1 1 -2.11246 -12.2062 4.41127 0 0 0 
380 1 1 -2.42968 -13.2366 4.62928 0 0 0 
381 1 1 -1.85495 -12.7748 3.81296 0 0 0 
382 1 1 -0.979606 -12.1399 4.01478 0 0 0 
383 1 1 -1.47449 -11.4075 4.66953 0 0 0 
384 1 1 -1.42847 -12.3679 5.20397 0 0 0 
385 1 1 -1.52137 -12.2008 6.28722 0 0 0 
386 1 1 -2.50607 -12.6884 6.33805 0 0 0 
387 1 1 -2.39219 -12.3184 7.36768 0 0 0 
388 1 1 -1.94418 -12.3913 6.36569 0 0 0 
389 1 1 -2.94878 -12.3397 6.8108 0 0 0 
390 1 1 -2.7673 -12.8447 7.77105 0 0 0 
391 1 1 -2.66055 -12.6775 8.85301 0 0 0 
392 1 1 -2.01308 -11.795 8.96306 0 0 0 
393 1 1 -2.30059 -11.5271 7.93566 0 0 0 
394 1 1 -3.24106 -11.0415 8.23509 0 0 0 
395 1 1 -3.76792 -11.7792 8.85815 0 0 0 
396 1 1 -3.20504 -11.5557 7.93987 0 0 0 
397 1 1 -2.98476 -11.7208 6.87487 0 0 0 
398 1 1 -2.39308 -12.1438 6.04964 0 0 0 
399 1 1 -1.88152 -11.2021 5.80145 0 0 0 
400 1 1 -1.2565 -11.0772 4.90494 0 0 0 
401 1 1 -1.71527 -11.1416 3.90726 0 0 0 
402 1 1 -1.78984 -10.7095 2.89843 0 0 0 
403 1 1 -2.67362 -11.2463 3.27373 0 0 0 
404 1 1 -2.25789 -12.2608 3.18512 0 0 0 
405 1 1 -1.26756 -12.6538 3.45855 0 0 0 
406 1 1 -1.95132 -13.029 2.68282 0 0 0 
407 1 1 -1.24774 -13.6832 3.21854 0 0 0 
408 1 1 -0.953197 -12.9454 2.4577 0 0 0 
409 1 1 -1.0323 -13.3452 1.43602 0 0 0 
410 1 1 -0.252862 -12.9612 0.761509 0 0 0 
411 1 1 0.467987 -13.6461 1.23181 0 0 0 
412 1 1 0.918314 -13.3609 2.19402 0 0 0 
413 1 1 0.633986 -13.1971 3.24393 0 0 0 
414 1 1 0.142372 -14.1573 3.02896 0 0 0 
415 1 1 0.300858 -14.5363 2.00852 0 0 0 
416 1 1 0.422475 -15.5311 1.55521 0 0 0 
417 1 1 0.748855 -15.7793 0.534485 0 0 0 
418 1 1 0.367658 -15.7468 1.56581 0 0 0 
419 1 1 -0.369108 -15.0327 1.96232 0 0 0 
420 1 1 -0.526021 -15.4121 2.98284 0 0 0 
421 1 1 -0.10205 -15.1899 3.97324 0 0 0 
422 1 1 -0.96561 -15.0678 3.30291 0 0 0 
423 1 1 -0.88769 -14.0346 3.67237 0 0 0 
424 1 1 0.111936 -14.1873 3.23943 0 0 0 
425 1 1 -0.018456 -14.4699 2.18437 0 0 0 
426 1 1 -0.324002 -14.1117 1.19022 0 0 0 
427 1 1 -0.0294181 -15.1431 1.43398 0 0 0 
428 1 1 0.955309 -14.6529 1.43871 0 0 0 
429 1 1 -0.125967 -14.5429 1.60828 0 0 0 
430 1 1 -0.926034 -14.5412 0.853371 0 0 0 
431 1 1 -0.113945 -14.9058 1.49959 0 0 0 
432 1 1 0.11225 -14.6096 2.53454 0 0 0 
433 1 1 0.195403 -14.5637 1.43865 0 0 0 
434 1 1 -0.432351 -14.1551 2.24427 0 0 0 
435 1 1 0.10257 -14.2812 1.2914 0 0 0 
436 1 1 0.242044 -13.8689 2.30164 0 0 0 
437 1 1 0.560618 -12.9607 2.83423 0 0 0 
438 1 1 -0.400181 -13.4555 3.03944 0 0 0 
439 1 1 -1.32369 -14.0069 3.26968 0 0 0 
440 1 1 -2.01733 -13.2514 3.66717 0 0 0 
441 1 1 -2.88497 -13.8828 3.9089 0 0 0 
442 1 1 -2.32283 -13.1214 3.34837 0 0 0 
443 1 1 -1.42937 -13.1472 2.70723 0 0 0 
444 1 1 -1.8402 -12.8594 1.72825 0 0 0 
445 1 1 -1.55888 -13.4619 0.851968 0 0 0 
446 1 1 -1.58224 -13.4383 1.95147 0 0 0 
447 1 1 -2.5709 -13.312 1.48606 0 0 0 
448 1 1 -3.16908 -14.0983 1.00244 0 0 0 
449 1 1 -2.85996 -15.0697 1.41583 0 0 0 
450 1 1 -3.50757 -14.2631 1.79007 0 0 0 
451 1 1 -3.96373 -13.4841 1.16156 0 0 0 
452 1 1 -3.42859 -12.7951 1.83159 0 0 0 
453 1 1 -3.67104 -13.2162 0.844722 0 0 0 
454 1 1 -3.86134 -12.7741 1.83385 0 0 0 
455 1 1 -3.8768 -12.7857 2.93368 0 0 0 
456 1 1 -2.97583 -13.2749 3.33233 0 0 0 
457 1 1 -3.94185 -13.3756 3.84872 0 0 0 
458 1 1 -4.01912 -12.5078 4.52018 0 0 0 
459 1 1 -3.8089 -12.8702 5.53725 0 0 0 
460 1 1 -3.92006 -12.9957 6.6244 0 0 0 
461 1 1 -4.90353 -12.7303 7.03955 0 0 0 
462 1 1 -4.47791 -12.0966 6.24756 0 0 0 
463 1 1 -4.49798 -12.131 7.34683 0 0 0 
464 1 1 -4.19747 -13.1683 7.13761 0 0 0 
465 1 1 -4.45276 -12.1379 7.426 0 0 0 
466 1 1 -4.92444 -11.1454 7.3756 0 0 0 
467 1 1 -5.02531 -11.6593 6.40828 0 0 0 
468 1 1 -4.9012 -10.5731 6.52896 0 0 0 
469 1 1 -5.02172 -10.45 7.6154 0 0 0 
470 1 1 -4.43741 -10.1576 8.50032 0 0 0 
471 1 1 -4.94549 -10.382 7.55083 0 0 0 
472 1 1 -5.41511 -10.1335 6.58764 0 0 0 
473 1 1 -5.57351 -9.56217 7.51418 0 0 0 
474 1 1 -5.71489 -9.38575 6.43767 0 0 0 
475 1 1 -6.56812 -9.92287 6.87757 0 0 0 
476 1 1 -7.55345 -9.68997 6.4476 0 0 0 
477 1 1 -6.56472 -10.0498 6.76845 0 0 0 
478 1 1 -5.53524 -9.71184 6.95808 0 0 0 
479 1 1 -6.17939 -10.1551 6.1844 0 0 0 
480 1 1 -5.89006 -10.4867 7.19252 0 0 0 
481 1 1 -5.13395 -9.90344 6.64659 0 0 0 
482 1 1 -4.60153 -10.825 6.36873 0 0 0 
483 1 1 -4.63524 -10.8771 5.27048 0 0 0 
484 1 1 -4.36851 -10.8453 4.20379 0 0 0 
485 1 1 -4.33058 -10.7406 3.10944 0 0 0 
486 1 1 -5.16662 -10.8626 3.81381 0 0 0 
487 1 1 -5.36581 -11.8996 3.50539 0 0 0 
488 1 1 -5.08179 -12.3658 2.55043 0 0 0 
489 1 1 -5.52385 -13.0613 1.82182 0 0 0 
490 1 1 -6.13366 -13.8276 2.32266 0 0 0 
491 1 1 -7.06773 -14.0357 1.78022 0 0 0 
492 1 1 -7.26335 -13.6422 0.771808 0 0 0 
493 1 1 -7.52553 -13.5429 -0.291865 0 0 0 
494 1 1 -7.55323 -13.3791 -1.37925 0 0 0 
495 1 1 -6.76662 -12.6657 -1.09235 0 0 0 
496 1 1 -6.69991 -12.7763 -2.18474 0 0 0 
497 1 1 -7.24563 -11.8255 -2.27512 0 0 0 
498 1 1 -7.82544 -11.9588 -3.20036 0 0 0 
499 1 1 -6.95792 -12.3677 -3.73903 0 0 0 
500 1 1 -6.94936 -12.1666 -4.82046 0 0 0 
Bonds

1 1 1 2
2 1 2 3
3 1 3 4
4 1 4 5
5 1 5 6
6 1 6 7
7 1 7 8
8 1 8 9
9 1 9 10
10 1 10 11
11 1 11 12
12 1 12 13
13 1 13 14
14 1 14 15
15 1 15 16
16 1 16 17
17 1 17 18
18 1 18 19
19 1 19 20
20 1 20 21
21 1 21 22
22 1 22 23
23 1 23 24
24 1 24 25
25 1 25 26
26 1 26 27
27 1 27 28
28 1 28 29
29 1 29 30
30 1 30 31
31 1 31 32
32 1 32 33
33 1 33 34
34 1 34 35
35 1 35 36
36 1 36 37
37 1 37 38
38 1 38 39
39 1 39 40
40 1 40 41
41 1 41 42
42 1 42 43
43 1 43 44
44 1 44 45
45 1 45 46
46 1 46 47
47 1 47 48
48 1 48 49
49 1 49 50
50 1 50 51
51 1 51 52
52 1 52 53
53 1 53 54
54 1 54 55
55 1 55 56
56 1 56 57
57 1 57 58
58 1 58 59
59 1 59 60
60 1 60 61
61 1 61 62
62 1 62 63
63 1 63 64
64 1 64 65
65 1 65 66
66 1 66 67
67 1 67 68
68 1 68 69
69 1 69 70
70 1 70 71
71 1 71 72
72 1 72 73
73 1 73 74
74 1 74 75
75 1 75 76
76 1 76 77
77 1 77 78
78 1 78 79
79 1 79 80
80 1 80 81
81 1 81 82
82 1 82 83
83 1 83 84
84 1 84 85
85 1 85 86
86 1 86 87
87 1 87 88
88 1 88 89
89 1 89 90
90 1 90 91
91 1 91 92
92 1 92 93
93 1 93 94
94 1 94 95
95 1 95 96
96 1 96 97
97 1 97 98
98 1 98 99
99 1 99 100
100 1 100 101
101 1 101 102
102 1 102 103
103 1 103 104
104 1 104 105
105 1 105 106
106 1 106 107
107 1 107 108
108 1 108 109
109 1 109 110
110 1 110 111
111 1 111 112
112 1 112 113
113 1 113 114
114 1 114 115
115 1 115 116
116 1 116 117
117 1 117 118
118 1 118 119
119 1 119 120
120 1 120 121
121 1 121 122
122 1 122 123
123 1 123 124
124 1 124 125
125 1 125 126
126 1 126 127
127 1 127 128
128 1 128 129
129 1 129 130
130 1 130 131
131 1 131 132
132 1 132 133
133 1 133 134
134 1 134 135
135 1 135 136
136 1 136 137
137 1 137 138
138 1 138 139
139 1 139 140
140 1 140 141
141 1 141 142
142 1 142 143
143 1 143 144
144 1 144 145
145 1 145 146
146 1 146 147
147 1 147 148
148 1 148 149
149 1 149 150
150 1 150 151
151 1 151 152
152 1 152 153
153 1 153 154
154 1 154 155
155 1 155 156
156 1 156 157
157 1 157 158
158 1 158 159
159 1 159 160
160 1 160 161
161 1 161 162
162 1 162 163
163 1 163 164
164 1 164 165
165 1 165 166
166 1 166 167
167 1 167 168
168 1 168 169
169 1 169 170
170 1 170 171
171 1 171 172
172 1 172 173
173 1 173 174
174 1 174 175
175 1 175 176
176 1 176 177
177 1 177 178
178 1 178 179
179 1 179 180
180 1 180 181
181 1 181 182
182 1 182 183
183 1 183 184
184 1 184 185
185 1 185 186
186 1 186 187
187 1 187 188
188 1 188 189
189 1 189 190
190 1 190 191
191 1 191 192
192 1 192 193
193 1 193 194
194 1 194 195
195 1 195 196
196 1 196 197
197 1 197 198
198 1 198 199
199 1 199 200
200 1 200 201
201 1 201 202
202 1 202 203
203 1 203 204
204 1 204 205
205 1 205 206
206 1 206 207
207 1 207 208
208 1 208 209
209 1 209 210
210 1 210 211
211 1 211 212
212 1 212 213
213 1 213 214
214 1 214 215
215 1 215 216
216 1 216 217
217 1 217 218
218 1 218 219
219 1 219 220
220 1 220 221
221 1 221 222
222 1 222 223
223 1 223 224
224 1 224 225
225 1 225 226
226 1 226 227
227 1 227 228
228 1 228 229
229 1 229 230
230 1 230 231
231 1 231 232
232 1 232 233
233 1 233 234
234 1 234 235
235 1 235 236
236 1 236 237
237 1 237 238
238 1 238 239
239 1 239 240
240 1 240 241
241 1 241 242
242 1 242 243
243 1 243 244
244 1 244 245
245 1 245 246
246 1 246 247
247 1 247 248
248 1 248 249
249 1 249 250
250 1 250 251
251 1 251 252
252 1 252 253
253 1 253 254
254 1 254 255
255 1 255 256
256 1 256 257
257 1 257 258
258 1 258 259
259 1 259 260
260 1 260 261
261 1 261 262
262 1 262 263
263 1 263 264
264 1 264 265
265 1 265 266
266 1 266 267
267 1 267 268
268 1 268 269
269 1 269 270
270 1 270 271
271 1 271 272
272 1 272 273
273 1 273 274
274 1 274 275
275 1 275 276
276 1 276 277
277 1 277 278
278 1 278 279
279 1 279 280
280 1 280 281
281 1 281 282
282 1 282 283
283 1 283 284
284 1 284 285
285 1 285 286
286 1 286 287
287 1 287 288
288 1 288 289
289 1 289 290
290 1 290 291
291 1 291 292
292 1 292 293
293 1 293 294
294 1 294 295
295 1 295 296
296 1 296 297
297 1 297 298
298 1 298 299
299 1 299 300
300 1 300 301
301 1 301 302
302 1 302 303
303 1 303 304
304 1 304 305
305 1 305 306
306 1 306 307
307 1 307 308
308 1 308 309
309 1 309 310
310 1 310 311
311 1 311 312
312 1 312 313
313 1 313 314
314 1 314 315
315 1 315 316
316 1 316 317
317 1 317 318
318 1 318 319
319 1 319 320
320 1 320 321
321 1 321 322
322 1 322 323
323 1 323 324
324 1 324 325
325 1 325 326
326 1 326 327
327 1 327 328
328 1 328 329
329 1 329 330
330 1 330 331
331 1 331 332
332 1 332 333
333 1 333 334
334 1 334 335
335 1 335 336
336 1 336 337
337 1 337 338
338 1 338 339
339 1 339 340
340 1 340 341
341 1 341 342
342 1 342 343
343 1 343 344
344 1 344 345
345 1 345 346
346 1 346 347
347 1 347 348
348 1 348 349
349 1 349 350
350 1 350 351
351 1 351 352
352 1 352 353
353 1 353 354
354 1 354 355
355 1 355 356
356 1 356 357
357 1 357 358
358 1 358 359
359 1 359 360
360 1 360 361
361 1 361 362
362 1 362 363
363 1 363 364
364 1 364 365
365 1 365 366
366 1 366 367
367 1 367 368
368 1 368 369
369 1 369 370
370 1 370 371
371 1 371 372
372 1 372 373
373 1 373 374
374 1 374 375
375 1 375 376
376 1 376 377
377 1 377 378
378 1 378 379
379 1 379 380
380 1 380 381
381 1 381 382
382 1 382 383
383 1 383 384
384 1 384 385
385 1 385 386
386 1 386 387
387 1 387 388
388 1 388 389
389 1 389 390
390 1 390 391
391 1 391 392
392 1 392 393
393 1 393 394
394 1 394 395
395 1 395 396
396 1 396 397
397 1 397 398
398 1 398 399
399 1 399 400
400 1 400 401
401 1 401 402
402 1 402 403
403 1 403 404
404 1 404 405
405 1 405 406
406 1 406 407
407 1 407 408
408 1 408 409
409 1 409 410
410 1 410 411
411 1 411 412
412 1 412 413
413 1 413 414
414 1 414 415
415 1 415 416
416 1 416 417
417 1 417 418
418 1 418 419
419 1 419 420
420 1 420 421
421 1 421 422
422 1 422 423
423 1 423 424
424 1 424 425
425 1 425 426
426 1 426 427
427 1 427 428
428 1 428 429
429 1 429 430
430 1 430 431
431 1 431 432
432 1 432 433
433 1 433 434
434 1 434 435
435 1 435 436
436 1 436 437
437 1 437 438
438 1 438 439
439 1 439 440
440 1 440 441
441 1 441 442
442 1 442 443
443 1 443 444
444 1 444 445
445 1 445 446
446 1 446 447
447 1 447 448
448 1 448 449
449 1 449 450
450 1 450 451
451 1 451 452
452 1 452 453
453 1 453 454
454 1 454 455
455 1 455 456
456 1 456 457
457 1 457 458
458 1 458 459
459 1 459 460
460 1 460 461
461 1 461 462
462 1 462 463
463 1 463 464
464 1 464 465
465 1 465 466
466 1 466 467
467 1 467 468
468 1 468 469
469 1 469 470
470 1 470 471
471 1 471 472
472 1 472 473
473 1 473 474
474 1 474 475
475 1 475 476
476 1 476 477
477 1 477 478
478 1 478 479
479 1 479 480
480 1 480 481
481 1 481 482
482 1 482 483
483 1 483 484
484 1 484 485
485 1 485 486
486 1 486 487
487 1 487 488
488 1 488 489
489 1 489 490
490 1 490 491
491 1 491 492
492 1 492 493
493 1 493 494
494 1 494 495
495 1 495 496
496 1 496 497
497 1 497 498
498 1 498 499
499 1 499 500

Angles

1 1 1 2 3
2 1 2 3 4
3 1 3 4 5
4 1 4 5 6
5 1 5 6 7
6 1 6 7 8
7 1 7 8 9
8 1 8 9 10
9 1 9 10 11
10 1 10 11 12
11 1 11 12 13
12 1 12 13 14
13 1 13 14 15
14 1 14 15 16
15 1 15 16 17
16 1 16 17 18
17 1 17 18 19
18 1 18 19 20
19 1 19 20 21
20 1 20 21 22
21 1 21 22 23
22 1 22 23 24
23 1 23 24 25
24 1 24 25 26
25 1 25 26 27
26 1 26 27 28
27 1 27 28 29
28 1 28 29 30
29 1 29 30 31
30 1 30 31 32
31 1 31 32 33
32 1 32 33 34
33 1 33 34 35
34 1 34 35 36
35 1 35 36 37
36 1 36 37 38
37 1 37 38 39
38 1 38 39 40
39 1 39 40 41
40 1 40 41 42
41 1 41 42 43
42 1 42 43 44
43 1 43 44 45
44 1 44 45 46
45 1 45 46 47
46 1 46 47 48
47 1 47 48 49
48 1 48 49 50
49 1 49 50 51
50 1 50 51 52
51 1 51 52 53
52 1 52 53 54
53 1 53 54 55
54 1 54 55 56
55 1 55 56 57
56 1 56 57 58
57 1 57 58 59
58 1 58 59 60
59 1 59 60 61
60 1 60 61 62
61 1 61 62 63
62 1 62 63 64
63 1 63 64 65
64 1 64 65 66
65 1 65 66 67
66 1 66 67 68
67 1 67 68 69
68 1 68 69 70
69 1 69 70 71
70 1 70 71 72
71 1 71 72 73
72 1 72 73 74
73 1 73 74 75
74 1 74 75 76
75 1 75 76 77
76 1 76 77 78
77 1 77 78 79
78 1 78 79 80
79 1 79 80 81
80 1 80 81 82
81 1 81 82 83
82 1 82 83 84
83 1 83 84 85
84 1 84 85 86
85 1 85 86 87
86 1 86 87 88
87 1 87 88 89
88 1 88 89 90
89 1 89 90 91
90 1 90 91 92
91 1 91 92 93
92 1 92 93 94
93 1 93 94 95
94 1 94 95 96
95 1 95 96 97
96 1 96 97 98
97 1 97 98 99
98 1 98 99 100
99 1 99 100 101
100 1 100 101 102
101 1 101 102 103
102 1 102 103 104
103 1 103 104 105
104 1 104 105 106
105 1 105 106 107
106 1 106 107 108
107 1 107 108 109
108 1 108 109 110
109 1 109 110 111
110 1 110 111 112
111 1 111 112 113
112 1 112 113 114
113 1 113 114 115
114 1 114 115 116
115 1 115 116 117
116 1 116 117 118
117 1 117 118 119
118 1 118 119 120
119 1 119 120 121
120 1 120 121 122
121 1 121 122 123
122 1 122 123 124
123 1 123 124 125
124 1 124 125 126
125 1 125 126 127
126 1 126 127 128
127 1 127 128 129
128 1 128 129 130
129 1 129 130 131
130 1 130 131 132
131 1 131 132 133
132 1 132 133 134
133 1 133 134 135
134 1 134 135 136
135 1 135 136 137
136 1 136 137 138
137 1 137 138 139
138 1 138 139 140
139 1 139 140 141
140 1 140 141 142
141 1 141 142 143
142 1 142 143 144
143 1 143 144 145
144 1 144 145 146
145 1 145 146 147
146 1 146 147 148
147 1 147 148 149
148 1 148 149 150
149 1 149 150 151
150 1 150 151 152
151 1 151 152 153
152 1 152 153 154
153 1 153 154 155
154 1 154 155 156
155 1 155 156 157
156 1 156 157 158
157 1 157 158 159
158 1 158 159 160
159 1 159 160 161
160 1 160 161 162
161 1 161 162 163
162 1 162 163 164
163 1 163 164 165