LAMMPS (1 Feb 2019)
OMP_NUM_THREADS environment is not set. Defaulting to 1 thread. (../comm.cpp:87)
  using 1 OpenMP thread(s) per MPI task
####################################
####	ULOOP			####
####################################
variable jbn uloop 1  # run n simulations
variable startfrom equal 0
variable jn equal ${jbn}+${startfrom}
variable jn equal 1+${startfrom}
variable jn equal 1+0
print ${jn}
print 1
1
variable seed equal (${jn}+4)*51-2*${jbn}
variable seed equal (1+4)*51-2*${jbn}
variable seed equal (1+4)*51-2*1
variable seedr equal (${jn}+2)*22
variable seedr equal (1+2)*22

#
variable N equal 2000
timestep 0.01
variable Dt equal 100000
variable Temp equal 1.0
variable Norm equal 0.88585294441338
if "${jn} <= 2" then "variable E equal 0.9"
variable E equal 0.9
if "${jn} > 2 && ${jn} <= 4" then "variable E equal 1.5"
if "${jn} > 4 && ${jn} <= 6" then "variable E equal 2.0"
if "${jn} > 6 && ${jn} <= 8" then "variable E equal 2.5"
if "${jn} > 8 && ${jn} <= 10" then "variable E equal 3.0"
if "${jn} > 10 && ${jn} <= 12" then "variable E equal 3.5"
if "${jn} > 12 && ${jn} <= 14" then "variable E equal 4.0"
if "${jn} > 14 && ${jn} <= 16" then "variable E equal 4.5"
if "${jn} > 16 && ${jn} <= 18" then "variable E equal 5.0"

#
####################################
####	DEFINTIONS 	########
####################################
#
variable N equal 500
variable folder index RW_Dt${Dt}_E${E}
variable folder index RW_Dt100000_E${E}
variable folder index RW_Dt100000_E0.9
shell mkdir ${folder}
shell mkdir RW_Dt100000_E0.9
variable SimOutType index RW${jn}Dt${Dt}E${E}
variable SimOutType index RW1Dt${Dt}E${E}
variable SimOutType index RW1Dt100000E${E}
variable SimOutType index RW1Dt100000E0.9
variable rname index INIT/Poly.N${N}.dat
variable rname index INIT/Poly.N500.dat
variable simname index Poly.N${N}.${SimOutType}
variable simname index Poly.N500.${SimOutType}
variable simname index Poly.N500.RW1Dt100000E0.9
#
units lj
atom_style angle
boundary        p p p
neighbor 1.3 bin
neigh_modify every 5 delay 5 check yes
#
restart 1000000 ${folder}/Restart.neutr.${simname}.
restart 1000000 RW_Dt100000_E0.9/Restart.neutr.${simname}.
restart 1000000 RW_Dt100000_E0.9/Restart.neutr.Poly.N500.RW1Dt100000E0.9.
print ${rname}
print INIT/Poly.N500.dat
INIT/Poly.N500.dat
read_data ${rname}
read_data INIT/Poly.N500.dat
  orthogonal box = (-50 -50 -50) to (50 50 50)
  1 by 1 by 1 MPI processor grid
  reading atoms ...
  500 atoms
  scanning bonds ...
  1 = max bonds/atom
  scanning angles ...
  1 = max angles/atom
  reading bonds ...
  499 bonds
  reading angles ...
  498 angles
  2 = max # of 1-2 neighbors
  2 = max # of 1-3 neighbors
  4 = max # of 1-4 neighbors
  6 = max # of special neighbors

####################################
####	GROUPS	             #######
####################################
group blue type 1
500 atoms in group blue
group red type 2
0 atoms in group red
group grey type 3
0 atoms in group grey

change_box all x final -60 60 y final -60 60 z final -60 60 boundary f f f units box
  orthogonal box = (-60 -50 -50) to (60 50 50)
  orthogonal box = (-60 -60 -50) to (60 60 50)
  orthogonal box = (-60 -60 -60) to (60 60 60)

####################################
####	ANGLE	             #######
####################################
angle_style   cosine
angle_coeff  1 3.0  #20 sigma for realistic DNA (1 bead = 2.5 nm)

####################################
####	PAIRS	             #######
####################################
pair_style  soft 2.5
pair_modify     shift yes
pair_coeff      * * 20 1.12246152962189

variable prefactor equal ramp(0,50)
fix pushapart all adapt 1 pair soft a * * v_prefactor

####################################
####	FENE	             #######
####################################
bond_style   fene
special_bonds fene#<=== I M P O R T A N T (new command)
  2 = max # of 1-2 neighbors
  6 = max # of special neighbors
bond_coeff   1  30.0   1.6  1.0  1.0

####################################
####	FIXES	             #######
####################################
fix 1 all   nve
fix 2 all  langevin   1.0 1.0   1.0   ${seed}
fix 2 all  langevin   1.0 1.0   1.0   253

####################################
####	WALL	             #######
####################################
fix WALL all wall/lj126 xhi EDGE 1.0 1.0 1.122462048 xlo EDGE 1.0 1.0 1.122462048 yhi EDGE 1.0 1.0 1.122462048 ylo EDGE 1.0 1.0 1.122462048 zhi EDGE 1.0 1.0 1.122462048 zlo EDGE 1.0 1.0 1.122462048 units box

####################################
####	RESET TIME             #######
####################################
reset_timestep 0

####################################
####	SWAP - ATOMS         #######
####################################
##HERE I USE fix atom/swap to attempt an atom swap between types
## In theory, I don't need to do a loop as the fix does it every
## N timesteps
##FIRST Dt IS NOT SWAPPING ANYWAY!
group Polymer type 1 2 3
500 atoms in group Polymer
fix Aswap Polymer atom/swap ${Dt} ${N} ${seed} ${Temp} semi-grand yes types 1 2 3 mu 0.0 0.0 0.0
fix Aswap Polymer atom/swap 100000 ${N} ${seed} ${Temp} semi-grand yes types 1 2 3 mu 0.0 0.0 0.0
fix Aswap Polymer atom/swap 100000 500 ${seed} ${Temp} semi-grand yes types 1 2 3 mu 0.0 0.0 0.0
fix Aswap Polymer atom/swap 100000 500 253 ${Temp} semi-grand yes types 1 2 3 mu 0.0 0.0 0.0
fix Aswap Polymer atom/swap 100000 500 253 1 semi-grand yes types 1 2 3 mu 0.0 0.0 0.0
variable Swaps equal f_Aswap[2]/1.0
variable Attempts equal f_Aswap[1]/1.0

####################################
####    THERMO AND INTEGRATION
####################################
timestep 0.01
thermo 10000
thermo_style   custom   step  temp  epair vol cpu v_Attempts v_Swaps

####################################
####	EQUILIBRATION        #######
####################################
#THIS IS TO TEST
#PUT LARGER NUMBER WHEN DOING ACTUAL SIMULATIONS
run 100000
Neighbor list info ...
  update every 5 steps, delay 5 steps, check yes
  max neighbors/atom: 2000, page size: 100000
  master list distance cutoff = 2.42246
  ghost atom cutoff = 2.42246
  binsize = 1.21123, bins = 100 100 100
  1 neighbor lists, perpetual/occasional/extra = 1 0 0
  (1) pair soft, perpetual
      attributes: half, newton on
      pair build: half/bin/newton
      stencil: half/bin/3d/newton
      bin: standard
Per MPI rank memory allocation (min/avg/max) = 9.234 | 9.234 | 9.234 Mbytes
Step Temp E_pair Volume CPU v_Attempts v_Swaps 
       0            0            0      1728000            0            0            0 
   10000    1.0294079 0.0064934185      1728000    1.1042969          500          500 
   20000    0.9987672   0.01265543      1728000    1.9490891          500          500 
   30000    1.0377049 0.0053002516      1728000    2.7949619          500          500 
   40000   0.96298537   0.00420477      1728000    3.6510301          500          500 
   50000   0.95514074 4.5880284e-05      1728000    4.5040839          500          500 
   60000   0.97827728 4.9670865e-05      1728000     5.354028          500          500 
   70000   0.96772811 0.00068691548      1728000     6.257916          500          500 
   80000    1.0272917 0.0015087736      1728000      7.10395          500          500 
   90000    1.0539828 0.0015163033      1728000     7.926863          500          500 
  100000   0.98519253 0.0023363482      1728000    8.7599061          500          500 
Loop time of 8.7619 on 1 procs for 100000 steps with 500 atoms

Performance: 9860870.421 tau/day, 11413.044 timesteps/s
99.3% CPU use with 1 MPI tasks x 1 OpenMP threads

MPI task timing breakdown:
Section |  min time  |  avg time  |  max time  |%varavg| %total
---------------------------------------------------------------
Pair    | 0.59118    | 0.59118    | 0.59118    |   0.0 |  6.75
Bond    | 2.5019     | 2.5019     | 2.5019     |   0.0 | 28.55
Neigh   | 2.5228     | 2.5228     | 2.5228     |   0.0 | 28.79
Comm    | 0.12794    | 0.12794    | 0.12794    |   0.0 |  1.46
Output  | 0.019929   | 0.019929   | 0.019929   |   0.0 |  0.23
Modify  | 2.8982     | 2.8982     | 2.8982     |   0.0 | 33.08
Other   |            | 0.1        |            |       |  1.14

Nlocal:    500 ave 500 max 500 min
Histogram: 1 0 0 0 0 0 0 0 0 0
Nghost:    0 ave 0 max 0 min
Histogram: 1 0 0 0 0 0 0 0 0 0
Neighs:    847 ave 847 max 847 min
Histogram: 1 0 0 0 0 0 0 0 0 0

Total # of neighbors = 847
Ave neighs/atom = 1.694
Ave special neighs/atom = 1.996
Neighbor list builds = 4475
Dangerous builds = 0


unfix pushapart
unfix Aswap
reset_timestep 0

#######################################################
####	PAIRS -- REPULSIVE + REDS FERROMAGN 	#######
#######################################################
#ENERGYSCALE
variable Et equal ${E}/${Norm}
variable Et equal 0.9/${Norm}
variable Et equal 0.9/0.88585294441338

pair_style  lj/cut 1.8
pair_modify     shift yes
pair_coeff      * *  1.0 1.0 1.12246152962189

pair_coeff      1 1  ${Et} 1.0 1.8
pair_coeff      1 1  1.01596998201094 1.0 1.8
pair_coeff      1 2  1.0 1.0 1.12246152962189
pair_coeff      1 3  1.0 1.0 1.12246152962189

pair_coeff      2 2  ${Et} 1.0 1.8
pair_coeff      2 2  1.01596998201094 1.0 1.8
pair_coeff      2 3  1.0 1.0 1.12246152962189

pair_coeff      3 3  1.0 1.0 1.12246152962189
#######################################################


########################
## PER PRIMI VICINI   ##
########################
bond_style harmonic
special_bonds lj 1 1 1
  2 = max # of 1-2 neighbors
  2 = max # of 1-3 neighbors
  4 = max # of 1-4 neighbors
  6 = max # of special neighbors
bond_coeff 1 200 1.12246
#bond_style fene
#special_bonds fene
#bond_coeff 1 30 1.6 1.0 1.0

########################
## RECOLOR #############
########################
group Polymer type 1 2 3
500 atoms in group Polymer
variable smooth equal 10
variable dtsmooth equal ${Dt}/${smooth}
variable dtsmooth equal 100000/${smooth}
variable dtsmooth equal 100000/10
variable Nsmooth equal ${N}/${smooth}
variable Nsmooth equal 500/${smooth}
variable Nsmooth equal 500/10
fix Aswap Polymer atom/swap ${dtsmooth} ${Nsmooth} ${seedr} ${Temp} semi-grand yes types 1 2 3 mu 0.0 0.0 0.0
fix Aswap Polymer atom/swap 10000 ${Nsmooth} ${seedr} ${Temp} semi-grand yes types 1 2 3 mu 0.0 0.0 0.0
fix Aswap Polymer atom/swap 10000 50 ${seedr} ${Temp} semi-grand yes types 1 2 3 mu 0.0 0.0 0.0
fix Aswap Polymer atom/swap 10000 50 66 ${Temp} semi-grand yes types 1 2 3 mu 0.0 0.0 0.0
fix Aswap Polymer atom/swap 10000 50 66 1 semi-grand yes types 1 2 3 mu 0.0 0.0 0.0
variable Swaps equal f_Aswap[2]/1.0
variable Attempts equal f_Aswap[1]/1.0

####################################
####    DUMPS                 #######
####################################
##VMD
#dump 1 all custom 1000 ${folder}/${simname}.lammpstrj id mol type x y z
#dump_modify  1   format "%d %d %d %.5f %.5f %.5f"

##DAT
dump 2 all custom 100000 ${folder}/${simname}.* id type x y z ix iy iz
dump 2 all custom 100000 RW_Dt100000_E0.9/${simname}.* id type x y z ix iy iz
dump 2 all custom 100000 RW_Dt100000_E0.9/Poly.N500.RW1Dt100000E0.9.* id type x y z ix iy iz
#dump_modify   2   format "%d %d %.5f %.5f %.5f %d %d %d"

##CFG
#dump 3 all cfg 1000 ${folder}/CFG/${simname}.tot.*.cfg mass type xs ys zs id mol type
#dump_modify 3 element N C O Ca Xe

##XYZ
dump 4 all xyz 100000 XYZ_${simname}.xyz
dump 4 all xyz 100000 XYZ_Poly.N500.RW1Dt100000E0.9.xyz
dump_modify 4 element C O N Xe

###########################
thermo 10000
thermo_style   custom   step  temp  epair vol cpu v_Attempts v_Swaps
run 50000000
Neighbor list info ...
  update every 5 steps, delay 5 steps, check yes
  max neighbors/atom: 2000, page size: 100000
  master list distance cutoff = 3.1
  ghost atom cutoff = 3.1
  binsize = 1.55, bins = 78 78 78
  1 neighbor lists, perpetual/occasional/extra = 1 0 0
  (1) pair lj/cut, perpetual
      attributes: half, newton on
      pair build: half/bin/newton
      stencil: half/bin/3d/newton
      bin: standard
Per MPI rank memory allocation (min/avg/max) = 9.566 | 9.566 | 9.566 Mbytes
Step Temp E_pair Volume CPU v_Attempts v_Swaps 
       0   0.98519253    1.9938474      1728000            0            0            0 
   10000    0.9423094  -0.30447027      1728000   0.83691716           50           39 
   20000   0.96071171  -0.35069141      1728000    1.6588321          100           77 
   30000    1.0361784  -0.32373342      1728000    2.4695981          150          113 
   40000    1.0307759   -0.3387235      1728000    3.3218501          200          146 
   50000   0.99848319  -0.35766186      1728000    4.1297381          250          181 
   60000    1.0391878  -0.37364536      1728000    4.9410582          300          214 
   70000   0.98599791  -0.36984052      1728000     5.743927          350          251 
   80000   0.97324396  -0.34844673      1728000    6.5626681          400          281 
   90000   0.99266878  -0.37472762      1728000     7.400924          450          311 
  100000    1.0313862  -0.34790787      1728000    8.2420912          500          343 
  110000   0.98452681  -0.40213342      1728000       9.0683          550          377 
  120000   0.97882776  -0.38571391      1728000    9.9058411          600          409 
  130000   0.95646537  -0.40139448      1728000    10.732076          650          437 
  140000    0.9573241  -0.39915714      1728000     11.54886          700          468 
  150000    1.0121835  -0.37763904      1728000    12.378745          750          498 
  160000   0.98828906  -0.40481051      1728000    13.185003          800          526 
  170000    1.0447864  -0.39606978      1728000    14.010699          850          552 
  180000   0.95528908  -0.41247664      1728000    14.874728          900          585 
  190000    1.0526875  -0.41567895      1728000    15.712871          950          618 
  200000    1.0564553  -0.44750306      1728000    16.565034         1000          649 
  210000    1.0339726  -0.46150424      1728000    17.422895         1050          675 
  220000   0.99565052  -0.43671612      1728000    18.263886         1100          695 
  230000    1.0466759  -0.45852796      1728000     19.09892         1150          718 
  240000     1.059596  -0.46680701      1728000    19.933967         1200          744 
  250000    1.0001634  -0.42019265      1728000    20.761959         1250          768 
  260000   0.99159053  -0.43051319      1728000    21.578132         1300          798 
  270000   0.95562299  -0.45177065      1728000    22.391791         1350          830 
  280000   0.93875937  -0.43263679      1728000    23.200875         1400          859 
  290000    1.0034495  -0.43272626      1728000    24.018018         1450          889 
  300000   0.99276178  -0.43425718      1728000    24.851934         1500          914 
  310000      1.03591  -0.42480764      1728000    25.693924         1550          945 
  320000    0.9945567  -0.43876637      1728000    26.520006         1600          973 
  330000   0.98643155  -0.48634195      1728000    27.350883         1650         1005 
  340000    1.0003632  -0.44681597      1728000     28.17606         1700         1033 
  350000    1.0071292  -0.47453963      1728000    29.006829         1750         1059 
  360000    1.0384643  -0.47624364      1728000     29.84954         1800         1089 
  370000   0.96616857  -0.49433442      1728000    30.704803         1850         1117 
  380000    1.0298358  -0.50796903      1728000    31.539971         1900         1146 
  390000   0.96298483  -0.47222046      1728000    32.409591         1950         1181 
  400000    1.0117955  -0.46135354      1728000    33.245725         2000         1208 
  410000     0.994344  -0.44714487      1728000    34.058183         2050         1229 
  420000   0.96405961  -0.44860419      1728000    34.881649         2100         1258 
  430000   0.98946082  -0.46017472      1728000    35.713588         2150         1284 
  440000    1.0170976  -0.46331838      1728000    36.536988         2200         1318 
  450000    1.0264795  -0.48343389      1728000     37.36669         2250         1345 
  460000   0.98502431  -0.44467049      1728000    38.187766         2300         1372 
  470000   0.93875974  -0.44321948      1728000    38.999048         2350         1400 
  480000    0.9385227  -0.49554238      1728000    39.821909         2400         1429 
  490000   0.99212779  -0.48180822      1728000    40.651746         2450         1454 
  500000     1.000931  -0.46431358      1728000    41.477025         2500         1481 
  510000   0.99827555  -0.44381988      1728000    42.324014         2550         1508 
  520000    1.0470038  -0.43550432      1728000    43.144973         2600         1534 
  530000    1.0674009  -0.45436556      1728000    43.946955         2650         1564 
  540000    1.0137025   -0.4688798      1728000    44.764772         2700         1591 
  550000   0.98194337  -0.43632996      1728000    45.574849         2750         1621 
  560000    0.9704588  -0.43920166      1728000    46.393692         2800         1644 
  570000    1.0353652  -0.43009636      1728000    47.232864         2850         1676 
  580000    1.0411015  -0.41531591      1728000    48.077721         2900         1702 
  590000    1.0456384  -0.43094866      1728000    48.910847         2950         1725 
  600000    1.0057402  -0.45356803      1728000    49.749963         3000         1751 
  610000   0.99771164  -0.44007666      1728000     50.57951         3050         1777 
  620000   0.98608718  -0.44012131      1728000    51.404106         3100         1807 
  630000    1.0588973  -0.43059833      1728000    52.244884         3150         1838 
  640000   0.98129984  -0.44785781      1728000    53.071056         3200         1859 
  650000    1.0176965  -0.44132179      1728000    53.890093         3250         1886 
  660000    1.0411954  -0.45792632      1728000    54.723931         3300         1914 
  670000   0.97954472  -0.43093761      1728000    55.550945         3350         1938 
  680000   0.99579811  -0.46399519      1728000    56.376488         3400         1967 
  690000    1.0453912  -0.48347044      1728000    57.210677         3450         1995 
  700000    1.0290376  -0.46642771      1728000    58.037914         3500         2016 
  710000    1.0197329  -0.48373859      1728000     58.83991         3550         2045 
  720000    0.9943143  -0.47743844      1728000    59.652069         3600         2072 
  730000   0.99170504  -0.48100719      1728000    60.489795         3650         2098 
  740000   0.99734506  -0.47627424      1728000    61.309675         3700         2132 
  750000    1.0262804  -0.48821859      1728000     62.12985         3750         2152 
  760000   0.97111054  -0.48266448      1728000    62.947714         3800         2175 
  770000    1.0146166  -0.47820616      1728000    63.769779         3850         2204 
  780000   0.94399639  -0.46948094      1728000    64.591911         3900         2230 
  790000    1.0121682  -0.47514328      1728000    65.417933         3950         2258 
  800000   0.92980469  -0.45578411      1728000    66.255772         4000         2287 
  810000   0.95384897  -0.47238422      1728000    67.085942         4050         2313 
  820000   0.96351937  -0.46739797      1728000    67.918827         4100         2343 
  830000    0.9999557  -0.46389203      1728000    68.757956         4150         2373 
  840000    1.0612781  -0.48377238      1728000    69.590838         4200         2393 
  850000    1.0040474  -0.45830067      1728000    70.405915         4250         2421 
  860000   0.91542777  -0.43593162      1728000      71.2109         4300         2451 
  870000    1.0420915  -0.43712029      1728000    72.017933         4350         2480 
  880000    0.9521176  -0.45360257      1728000    72.827928         4400         2512 
  890000    0.9663827  -0.42779032      1728000    73.639861         4450         2543 
  900000   0.95632685  -0.41489815      1728000      74.4539         4500         2574 
  910000    1.0483291  -0.42049759      1728000    75.259935         4550         2602 
  920000    1.0237597   -0.4491305      1728000    76.072928         4600         2633 
  930000   0.99590055  -0.46306554      1728000    76.887615         4650         2661 
  940000    1.0073926  -0.45496297      1728000    77.695879         4700         2693 
  950000   0.99686568  -0.43783234      1728000    78.505788         4750         2718 
  960000   0.96351251  -0.44992563      1728000     79.31996         4800         2746 
  970000    0.9293166  -0.46460654      1728000    80.133841         4850         2780 
  980000   0.96923434  -0.41163751      1728000    80.940905         4900         2810 
  990000   0.97689471  -0.41820948      1728000    81.756785         4950         2839 
 1000000   0.93402103  -0.40821222      1728000    82.592897         5000         2865 
 1010000     1.052681   -0.4192375      1728000    83.409949         5050         2895 
 1020000    1.0134928  -0.44747975      1728000    84.234841         5100         2922 
 1030000    1.0660476  -0.45223438      1728000     85.05185         5150         2947 
 1040000    1.0567244  -0.44489596      1728000    85.863908         5200         2975 
 1050000     1.063551  -0.44203773      1728000    86.699911         5250         3003 
 1060000    1.0662678  -0.44018657      1728000    87.519774         5300         3027 
 1070000   0.94464682  -0.41209214      1728000    88.352925         5350         3056 
 1080000   0.99311094  -0.43910158      1728000     89.19166         5400         3081 
 1090000     1.007099   -0.4802673      1728000    90.020952         5450         3105 
 1100000     1.016668  -0.47906081      1728000    90.862942         5500         3131 
 1110000   0.93626085  -0.51694051      1728000     91.69596         5550         3157 
 1120000   0.97882157  -0.52698258      1728000    92.595793         5600         3175 
 1130000    1.0158207  -0.49521506      1728000     93.41392         5650         3203 
 1140000   0.94868046  -0.48359918      1728000    94.272731         5700         3228 
 1150000   0.96925712  -0.49945561      1728000    95.108835         5750         3257 
 1160000    1.0609146  -0.45294064      1728000    95.926851         5800         3287 
 1170000   0.98568338  -0.48596585      1728000    96.751948         5850         3306 
 1180000     1.019942  -0.53152764      1728000    97.577711         5900         3331 
 1190000   0.98804651  -0.50021691      1728000    98.409939         5950         3350 
 1200000   0.95846317  -0.48449052      1728000     99.24294         6000         3373 
 1210000    1.0092893  -0.51759089      1728000    100.07599         6050         3404 
 1220000     1.021311   -0.4971542      1728000    100.92693         6100         3430 
 1230000   0.93843807  -0.49914598      1728000    101.79279         6150         3457 
 1240000   0.98293733  -0.47994608      1728000    102.64292         6200         3484 
 1250000    1.0002442  -0.44498337      1728000    103.46583         6250         3513 
 1260000   0.95327749  -0.44775249      1728000    104.28598         6300         3540 
 1270000   0.98467122  -0.41819431      1728000    105.11096         6350         3567 
 1280000   0.98471703  -0.44200454      1728000     105.9269         6400         3597 
 1290000     1.016066  -0.47177331      1728000    106.75679         6450         3625 
 1300000    1.0321821  -0.48149748      1728000    107.59076         6500         3650 
 1310000    1.0244674  -0.45144348      1728000    108.40595         6550         3672 
 1320000    1.0487456   -0.4287724      1728000    109.21982         6600         3696 
 1330000    1.0393125  -0.44746648      1728000    110.03885         6650         3723 
 1340000    0.9583517   -0.4208817      1728000    110.84392         6700         3751 
 1350000    1.0181814  -0.43478946      1728000    111.65191         6750         3776 
 1360000    0.9559703  -0.41315042      1728000    112.46581         6800         3804 
 1370000   0.93532883  -0.41128763      1728000    113.26702         6850         3825 
 1380000   0.97091431  -0.43094767      1728000     114.0888         6900         3852 
 1390000   0.97084649  -0.43536366      1728000    114.89078         6950         3883 
 1400000   0.99992203  -0.45713846      1728000    115.71894         7000         3907 
 1410000    1.0140655  -0.46902959      1728000    116.53286         7050         3933 
 1420000    1.0234857  -0.44005276      1728000    117.35798         7100         3961 
 1430000       1.0431  -0.44257403      1728000    118.18798         7150         3991 
 1440000    1.0061666  -0.44123867      1728000    118.99798         7200         4027 
 1450000   0.97026472  -0.42915408      1728000    119.80593         7250         4057 
 1460000    1.0423081  -0.41244757      1728000    120.60198         7300         4089 
 1470000    1.0298631  -0.43412751      1728000    121.40589         7350         4123 
 1480000   0.94047876   -0.4369834      1728000    122.21982         7400         4147 
 1490000    1.0205841  -0.43448255      1728000    123.02698         7450         4177 
 1500000    1.0123961  -0.40937898      1728000    123.83964         7500         4207 
 1510000    1.0449106  -0.40223221      1728000    124.64278         7550         4238 
 1520000   0.99449349  -0.43335858      1728000    125.45195         7600         4270 
 1530000   0.95994522   -0.4087387      1728000    126.26201         7650         4310 
 1540000   0.98738727  -0.42688667      1728000    127.06902         7700         4339 
 1550000    1.0230147   -0.4393961      1728000    127.86895         7750         4375 
 1560000   0.95851234  -0.43415843      1728000    128.69282         7800         4403 
 1570000   0.98181204  -0.42937946      1728000    129.48688         7850         4427 
 1580000   0.99915117  -0.43205172      1728000    130.28992         7900         4458 
 1590000    0.9549255  -0.44420416      1728000    131.08347         7950         4488 
 1600000    1.0340734  -0.45601099      1728000    131.88515         8000         4523 
 1610000    1.0003814  -0.47376193      1728000    132.70714         8050         4553 
 1620000    1.0268549  -0.46348999      1728000    133.51212         8100         4571 
 1630000   0.99036982  -0.49002785      1728000    134.32801         8150         4605 
 1640000   0.97401973  -0.47413754      1728000    135.13817         8200         4637 
 1650000    1.0246437  -0.45288122      1728000    135.93878         8250         4666 
 1660000    1.0221745  -0.47322027      1728000    136.74511         8300         4695 
 1670000   0.96750958  -0.48279127      1728000    137.54937         8350         4724 
 1680000    1.0397912   -0.4691975      1728000    138.36644         8400         4744 
 1690000   0.96909376  -0.48789938      1728000    139.16787         8450         4764 
 1700000   0.97250771   -0.4659768      1728000    140.00226         8500         4787 
 1710000    1.0745034  -0.46796865      1728000    140.82007         8550         4813 
 1720000    1.0108111  -0.47681601      1728000    141.61789         8600         4835 
 1730000    1.0549521  -0.47897725      1728000    142.41603         8650         4863 
 1740000    1.0003012  -0.48731954      1728000    143.22796         8700         4895 
 1750000   0.92309662  -0.47423181      1728000    144.04312         8750         4923 
 1760000    1.0668748  -0.49516464      1728000    144.85318         8800         4952 
 1770000   0.95309881  -0.47229887      1728000     145.6801         8850         4976 
 1780000     1.032609  -0.50124052      1728000    146.49699         8900         5002 
 1790000    1.0183704  -0.48061891      1728000    147.32195         8950         5027 
 1800000   0.99357524  -0.45287364      1728000    148.14216         9000         5052 
 1810000    1.0163185  -0.46907336      1728000    148.95222         9050         5080 
 1820000    1.0005374   -0.4242229      1728000    149.75717         9100         5109 
 1830000    1.0216362  -0.43480918      1728000    150.55135         9150         5142 
 1840000     1.063493  -0.40073523      1728000    151.36056         9200         5171 
 1850000   0.98426897  -0.41183397      1728000    152.17328         9250         5198 
 1860000    1.0163956  -0.40367109      1728000    152.98269         9300         5229 
 1870000    1.0866764  -0.39445128      1728000    153.77999         9350         5261 
 1880000   0.96022903  -0.40047776      1728000    154.57134         9400         5284 
 1890000    1.0129395  -0.42152653      1728000    155.37206         9450         5313 
 1900000   0.96680628  -0.40579803      1728000    156.17539         9500         5340 
 1910000    1.0101003   -0.3870863      1728000    156.96979         9550         5374 
 1920000   0.98165578  -0.39449532      1728000    157.77163         9600         5403 
 1930000    1.0426874   -0.4198868      1728000    158.57592         9650         5434 
 1940000    1.0019319  -0.39588199      1728000    159.38928         9700         5467 
 1950000   0.97806152  -0.39288524      1728000    160.21344         9750         5494 
 1960000   0.93507073  -0.40781977      1728000    161.03986         9800         5525 
 1970000   0.96726086   -0.4000146      1728000    161.84801         9850         5550 
 1980000   0.99632264  -0.42790889      1728000    162.66813         9900         5581 
 1990000    1.0114506  -0.42508576      1728000    163.47199         9950         5611 
 2000000   0.98520284  -0.38224342      1728000    164.29615        10000         5641 
 2010000   0.96602815  -0.38365083      1728000     165.1091        10050         5671 
 2020000    1.0514268  -0.40473479      1728000    165.91617        10100         5704 
 2030000     1.028408  -0.40270848      1728000    166.74693        10150         5731 
 2040000    1.0113291  -0.40655933      1728000    167.55623        10200         5760 
 2050000    1.0000816  -0.40159396      1728000    168.36685        10250         5787 
 2060000    1.0026799  -0.43069343      1728000     169.1773        10300         5814 
 2070000    1.0064793   -0.4186386      1728000    170.00115        10350         5838 
 2080000     1.003148  -0.42819515      1728000    170.79822        10400         5871 
 2090000   0.92420523  -0.45185872      1728000    171.61788        10450         5897 
 2100000    1.0013683  -0.44145548      1728000    172.45687        10500         5929 
 2110000    1.0490451  -0.42941354      1728000    173.26029        10550         5955 
 2120000    1.0125219  -0.47462821      1728000    174.08394        10600         5984 
 2130000   0.96919399  -0.44687795      1728000     174.9012        10650         6013 
 2140000     1.022247  -0.45226186      1728000    175.71776        10700         6042 
 2150000   0.97866317  -0.42922967      1728000    176.51894        10750         6071 
 2160000    1.0440929  -0.44425804      1728000    177.32822        10800         6100 
 2170000    1.0332823  -0.43106977      1728000    178.14322        10850         6127 
 2180000    1.0001364  -0.43059154      1728000    178.95862        10900         6155 
 2190000    1.0328871  -0.43672612      1728000    179.77691        10950         6179 
 2200000    0.9833812  -0.43435578      1728000    180.60403        11000         6211 
 2210000    1.0051282  -0.42958755      1728000    181.43718        11050         6239 
 2220000   0.98342324  -0.41337176      1728000    182.26529        11100         6266 
 2230000    1.0367774  -0.40506049      1728000    183.07917        11150         6295 
 2240000   0.92981976  -0.41720716      1728000    183.90021        11200         6319 
 2250000   0.99024065  -0.44311545      1728000    184.71938        11250         6339 
 2260000    0.9935474  -0.44705485      1728000    185.54501        11300         6367 
 2270000    1.0573807  -0.44261882      1728000    186.36427        11350         6392 
 2280000    1.0085717  -0.44053769      1728000    187.18397        11400         6423 
 2290000    0.9654822  -0.41573156      1728000     187.9986        11450         6450 
 2300000    1.0188286  -0.46936881      1728000    188.82211        11500         6477 
 2310000    1.0201821  -0.47128617      1728000    189.65387        11550         6500 
 2320000   0.97215941  -0.46684971      1728000    190.47425        11600         6528 
 2330000   0.96770846   -0.4651213      1728000     191.3166        11650         6555 
 2340000   0.93652646  -0.46197991      1728000    192.16307        11700         6581 
 2350000   0.99031983  -0.47109171      1728000    192.98117        11750         6613 
 2360000      1.09201  -0.44569556      1728000     193.7971        11800         6633 
 2370000   0.93834665  -0.46367823      1728000    194.60812        11850         6659 
 2380000   0.99017842  -0.46329542      1728000      195.417        11900         6689 
 2390000    1.0489205  -0.45311433      1728000    196.22339        11950         6720 
 2400000   0.98348147  -0.47166078      1728000    197.04225        12000         6750 
 2410000     1.004536  -0.45876692      1728000    197.85348        12050         6774 
 2420000   0.97615164  -0.48566916      1728000    198.65466        12100         6801 
 2430000    1.0325758  -0.47215299      1728000    199.46125        12150         6825 
 2440000   0.99916932  -0.45164016      1728000    200.26129        12200         6853 
 2450000   0.98819157  -0.49619592      1728000    201.07803        12250         6878 
 2460000    1.0241963  -0.46535619      1728000    201.92209        12300         6907 
 2470000    0.9643256  -0.44371933      1728000    202.74418        12350         6929 
 2480000    1.0806729  -0.48417872      1728000    203.56022        12400         6956 
 2490000    1.0208098  -0.45684829      1728000     204.3721        12450         6985 
 2500000   0.96836497   -0.4151489      1728000    205.21997        12500         7014 
 2510000   0.96687501  -0.40686247      1728000    206.03474        12550         7041 
 2520000   0.96086382  -0.42803314      1728000    206.86012        12600         7064 
 2530000   0.95015914  -0.41408816      1728000    207.66787        12650         7096 
 2540000   0.99280712  -0.40658037      1728000    208.49307        12700         7121 
 2550000   0.98623653  -0.41851893      1728000     209.3179        12750         7148 
 2560000    1.0146598    -0.434338      1728000    210.13904        12800         7175 
 2570000    1.0574116  -0.43556195      1728000    210.95915        12850         7201 
 2580000   0.95548063  -0.43414115      1728000    211.76606        12900         7230 
 2590000   0.97118398  -0.47241771      1728000    212.58515        12950         7260 
 2600000   0.95940771  -0.41911782      1728000     213.4113        13000         7290 
 2610000    1.0289782  -0.43857056      1728000    214.22948        13050         7316 
 2620000   0.98599586  -0.46685436      1728000    215.03833        13100         7348 
 2630000    1.0255599  -0.42013466      1728000    215.84612        13150         7374 
 2640000     1.065941  -0.43080922      1728000     216.6603        13200         7408 
 2650000   0.99365819  -0.47138255      1728000    217.47505        13250         7435 
 2660000    1.0041857  -0.40278978      1728000    218.28329        13300         7465 
 2670000    1.0334222  -0.41916187      1728000    219.08991        13350         7490 
 2680000   0.98163502  -0.37705498      1728000    219.88722        13400         7526 
 2690000   0.98464581  -0.39737551      1728000    220.69905        13450         7553 
 2700000    1.0426028  -0.40375777      1728000    221.51596        13500         7583 
 2710000   0.97082705  -0.40051792      1728000       222.36        13550         7616 
 2720000    0.9485216  -0.45397879      1728000    223.20784        13600         7643 
 2730000    1.0426649  -0.42943316      1728000    224.03611        13650         7670 
 2740000    1.0416685  -0.42738436      1728000    224.84117        13700         7702 
 2750000    1.0247657   -0.4099231      1728000    225.64599        13750         7731 
 2760000   0.95670873  -0.39486137      1728000    226.47007        13800         7759 
 2770000   0.98598136  -0.41621107      1728000    227.29218        13850         7793 
 2780000   0.93319113  -0.43841664      1728000     228.1041        13900         7822 
 2790000    1.0394501  -0.42061095      1728000    228.91111        13950         7845 
 2800000    1.0447796  -0.43506591      1728000    229.74411        14000         7871 
 2810000    1.0225283  -0.41829396      1728000    230.57896        14050         7900 
 2820000   0.97380925  -0.42419804      1728000    231.45704        14100         7929 
 2830000    1.0563599  -0.44530969      1728000    232.28471        14150         7958 
 2840000   0.92720694  -0.44857683      1728000    233.10424        14200         7979 
 2850000    1.0644994  -0.45103058      1728000    233.96494        14250         8010 
 2860000   0.98848046  -0.42765228      1728000    234.85498        14300         8036 
 2870000   0.95329592  -0.43069686      1728000    235.71331        14350         8061 
 2880000   0.94618368  -0.40468333      1728000    236.59395        14400         8086 
 2890000    1.0191986  -0.39989587      1728000    237.42901        14450         8116 
 2900000   0.98501768   -0.3987837      1728000    238.25628        14500         8143 
 2910000    1.0566574  -0.42757414      1728000    239.07301        14550         8176 
 2920000   0.96543366  -0.43388372      1728000     239.9102        14600         8203 
 2930000    1.0491075  -0.40404465      1728000    240.78758        14650         8233 
 2940000    1.0677288  -0.39677221      1728000    241.67075        14700         8264 
 2950000   0.94986413  -0.41791436      1728000     242.5299        14750         8295 
 2960000    1.0366691  -0.49502688      1728000    243.37104        14800         8323 
 2970000    1.0151491  -0.44843033      1728000    244.22121        14850         8351 
 2980000    1.0878613  -0.42991515      1728000    245.04045        14900         8381 
 2990000    1.0086926  -0.42904224      1728000    245.88361        14950         8410 
 3000000    1.0536823  -0.43629824      1728000    246.73173        15000         8439 
 3010000    1.0767723  -0.41357772      1728000    247.56413        15050         8463 
 3020000   0.98849959  -0.41668197      1728000    248.38821        15100         8494 
 3030000    1.0181841  -0.40076459      1728000    249.22231        15150         8523 
 3040000    1.0068534  -0.39264797      1728000    250.04316        15200         8551 
 3050000   0.97587759  -0.41530368      1728000    250.86809        15250         8584 
 3060000    1.0092117  -0.38483019      1728000    251.67114        15300         8613 
 3070000    1.0101405  -0.37297137      1728000    252.46334        15350         8636 
 3080000   0.97282832   -0.3877927      1728000    253.26006        15400         8668 
 3090000   0.94132456  -0.40516837      1728000    254.06931        15450         8698 
 3100000     1.006868  -0.39804451      1728000    254.89705        15500         8729 
 3110000    1.0135609  -0.42553337      1728000    255.70313        15550         8761 
 3120000   0.99080625  -0.41791856      1728000     256.5062        15600         8790 
 3130000     1.023427  -0.38679128      1728000    257.30625        15650         8824 
 3140000    1.0458683   -0.3932861      1728000    258.09902        15700         8847 
 3150000   0.97879537  -0.39864297      1728000    258.88928        15750         8878 
 3160000    1.0443383  -0.39502653      1728000    259.70814        15800         8905 
 3170000     1.004102  -0.39191247      1728000    260.51799        15850         8935 
 3180000   0.95180466  -0.37089546      1728000    261.32191        15900         8964 
 3190000   0.99356825  -0.36618514      1728000    262.13313        15950         8996 
 3200000   0.91672242  -0.39578984      1728000    262.93922        16000         9033 
 3210000    1.0087135  -0.39595597      1728000    263.74707        16050         9060 
 3220000   0.96930711  -0.39300178      1728000    264.56392        16100         9091 
 3230000    1.0692442  -0.38903597      1728000    265.38014        16150         9123 
 3240000   0.96488099   -0.4299603      1728000    266.19632        16200         9157 
 3250000     1.050375  -0.40603735      1728000    267.01947        16250         9190 
 3260000    1.0110639  -0.42975498      1728000    267.83972        16300         9221 
 3270000    1.0302848  -0.40907384      1728000    268.66197        16350         9244 
 3280000   0.93286186  -0.41505963      1728000    269.47388        16400         9273 
 3290000    1.0715002  -0.41007587      1728000    270.29247        16450         9298 
 3300000   0.97843795  -0.40459882      1728000    271.11706        16500         9323 
 3310000    1.0388517  -0.42609023      1728000    271.92823        16550         9353 
 3320000   0.99629367  -0.39995114      1728000     272.7351        16600         9381 
 3330000   0.99247709  -0.42355445      1728000    273.53097        16650         9414 
 3340000   0.98370735  -0.43635831      1728000    274.33843        16700         9448 
 3350000    0.9735039  -0.43322462      1728000    275.16316        16750         9475 
 3360000   0.95089823  -0.39546244      1728000    275.98414        16800         9502 
 3370000   0.95282367  -0.42459441      1728000    276.79408        16850         9526 
 3380000    1.0157468  -0.41710211      1728000    277.62029        16900         9555 
 3390000   0.98034968   -0.4252619      1728000    278.43058        16950         9588 
 3400000    1.0381069  -0.41121446      1728000    279.27225        17000         9613 
 3410000    1.0834749  -0.42039432      1728000    280.10818        17050         9640 
 3420000   0.95819088  -0.43112701      1728000    280.96384        17100         9670 
 3430000    1.0045244  -0.40273407      1728000    281.79015        17150         9699 
 3440000    1.0466029  -0.41868419      1728000    282.62511        17200         9726 
 3450000   0.91904677   -0.4174929      1728000    283.45134        17250         9760 
 3460000    1.0082568   -0.4094402      1728000    284.28415        17300         9789 
 3470000    1.0112011  -0.41525057      1728000     285.1301        17350         9812 
 3480000   0.97969603  -0.40083532      1728000    285.95405        17400         9833 
 3490000   0.96527958  -0.40256331      1728000    286.77423        17450         9867 
 3500000    1.0095145  -0.40695664      1728000    287.59129        17500         9898 
 3510000   0.98650216  -0.41676362      1728000    288.39932        17550         9931 
 3520000    1.0149471  -0.42900795      1728000    289.45994        17600         9961 
 3530000   0.97538597  -0.44852591      1728000    290.33007        17650         9985 
 3540000    1.0278418  -0.41384066      1728000    291.15286        17700        10014 
 3550000    1.0256512  -0.44478076      1728000    291.96809        17750        10045 
 3560000    1.0145445  -0.41641399      1728000    292.78763        17800        10066 
 3570000   0.97530196  -0.40943179      1728000    293.60713        17850        10091 
 3580000    1.0308145  -0.42040095      1728000    294.40331        17900        10129 
 3590000    1.0338562  -0.45760375      1728000    295.21151        17950        10163 
 3600000    1.0609256    -0.425197      1728000    296.03159        18000        10194 
 3610000   0.96475398   -0.4658214      1728000    296.84004        18050        10225 
 3620000     1.004376  -0.43123822      1728000    297.65803        18100        10253 
 3630000   0.98261238  -0.41903917      1728000    298.45914        18150        10286 
 3640000    1.0018827  -0.42464986      1728000    299.25926        18200        10316 
 3650000   0.97479716  -0.45229527      1728000    300.08006        18250        10345 
 3660000   0.98004763  -0.44525759      1728000    300.88717        18300        10377 
 3670000    1.0343665  -0.44062187      1728000    301.69516        18350        10409 
 3680000    1.0452991  -0.47434466      1728000    302.51427        18400        10442 
 3690000   0.95795236  -0.47589928      1728000    303.34136        18450        10466 
 3700000    1.0143258  -0.44079627      1728000    304.15224        18500        10497 
 3710000   0.99578192  -0.44212825      1728000    304.96016        18550        10529 
 3720000    1.0151097  -0.43906484      1728000    305.78813        18600        10563 
 3730000   0.93710951  -0.44310755      1728000    306.59605        18650        10588 
 3740000   0.97892187  -0.44560471      1728000    307.41765        18700        10613 
 3750000    1.0018826  -0.44170419      1728000     308.2272        18750        10641 
 3760000    1.0695633  -0.42605051      1728000    309.07236        18800        10670 
 3770000    1.0259965  -0.40854779      1728000    309.89027        18850        10700 
 3780000   0.95439267  -0.42679107      1728000    310.69836        18900        10724 
 3790000    1.0263824  -0.45227012      1728000    311.51133        18950        10754 
 3800000   0.96089431  -0.45562576      1728000     312.3243        19000        10783 
 3810000   0.97740128  -0.45244366      1728000    313.12113        19050        10811 
 3820000    1.0750555  -0.43671611      1728000    313.95901        19100        10843 
 3830000   0.96776187  -0.43032443      1728000    314.76686        19150        10876 
 3840000   0.97294759  -0.44568719      1728000    315.58031        19200        10898 
 3850000   0.99978247   -0.4166495      1728000    316.39309        19250        10928 
 3860000    1.0572027   -0.4362442      1728000    317.36524        19300        10954 
 3870000   0.98068459   -0.4353887      1728000    318.19099        19350        10981 
 3880000    1.0823623  -0.45315269      1728000     319.0074        19400        11009 
 3890000    1.0435976  -0.45284976      1728000     319.8271        19450        11036 
 3900000   0.96794473  -0.44255268      1728000    320.64225        19500        11069 
 3910000     1.010768  -0.43092555      1728000    321.45231        19550        11099 
 3920000    1.0193669  -0.44917158      1728000    322.26638        19600        11132 
 3930000    1.0590328  -0.42101126      1728000    323.09231        19650        11161 
 3940000   0.98244813  -0.42143773      1728000    323.90924        19700        11189 
 3950000     1.049558  -0.41394953      1728000    324.73217        19750        11217 
 3960000    1.0299874  -0.40305624      1728000     325.5422        19800        11241 
 3970000   0.92145175   -0.4076187      1728000    326.36102        19850        11270 
 3980000    1.0264843   -0.4216278      1728000    327.22552        19900        11298 
 3990000    0.9627203   -0.4129532      1728000    328.06429        19950        11327 
 4000000    1.0560675  -0.39885385      1728000    328.89928        20000        11355 
 4010000   0.97209981  -0.38053329      1728000    329.68901        20050        11392 
 4020000     1.057346  -0.39481305      1728000    330.48837        20100        11416 
 4030000     1.033194  -0.39772678      1728000    331.29626        20150        11448 
 4040000    1.0011995  -0.41566994      1728000    332.09135        20200        11478 
 4050000   0.98272596  -0.41646516      1728000    332.88827        20250        11505 
 4060000   0.97650741   -0.4234741      1728000    333.68659        20300        11532 
 4070000   0.99891483  -0.41742965      1728000     334.4959        20350        11557 
 4080000   0.98383654  -0.42779759      1728000    335.29221        20400        11586 
 4090000    0.9681062  -0.45188286      1728000    336.09616        20450        11612 
 4100000     1.046438  -0.46841109      1728000    336.93702        20500        11645 
 4110000   0.97803176  -0.44397244      1728000    337.74734        20550        11674 
 4120000     1.050806  -0.45318441      1728000    338.57827        20600        11706 
 4130000    1.0982111  -0.44122883      1728000    339.39106        20650        11734 
 4140000   0.98944476  -0.45388331      1728000    340.20617        20700        11761 
 4150000    1.0168411  -0.41057677      1728000    341.02076        20750        11793 
 4160000   0.99799693   -0.4090509      1728000    341.84713        20800        11823 
 4170000    1.0061316  -0.40441383      1728000    342.68194        20850        11847 
 4180000    1.0193505   -0.4243381      1728000    343.50211        20900        11878 
 4190000   0.95236532  -0.41690454      1728000    344.32031        20950        11909 
 4200000   0.99130287  -0.45183389      1728000    345.15975        21000        11937 
 4210000    1.0154449  -0.43382482      1728000    345.98912        21050        11964 
 4220000   0.99201754  -0.43476055      1728000    346.80814        21100        11992 
 4230000    1.0256982  -0.46044974      1728000    347.62645        21150        12017 
 4240000   0.94232721  -0.44929327      1728000    348.43135        21200        12049 
 4250000    1.0003236   -0.4546498      1728000    349.24985        21250        12080 
 4260000   0.93163349  -0.50021929      1728000     350.0861        21300        12108 
 4270000    1.0194149  -0.44697638      1728000    350.92108        21350        12139 
 4280000    1.0579717  -0.43582719      1728000     351.7394        21400        12168 
 4290000    1.0032626   -0.4520449      1728000    352.57207        21450        12201 
 4300000   0.98713928  -0.46955363      1728000    353.41488        21500        12231 
 4310000   0.96005804  -0.51172556      1728000     354.2464        21550        12264 
 4320000    1.0227845  -0.46797702      1728000    355.08699        21600        12288 
 4330000   0.97884145  -0.48584407      1728000    355.90236        21650        12317 
 4340000    1.0117276  -0.47146617      1728000    356.72713        21700        12341 
 4350000    1.0078259  -0.49805996      1728000    357.63314        21750        12362 
 4360000    1.0102389   -0.4689441      1728000    358.49232        21800        12394 
 4370000    1.0001292  -0.48521059      1728000    359.39639        21850        12418 
 4380000   0.96506668  -0.47552133      1728000    360.22522        21900        12448 
 4390000   0.97686803  -0.45990162      1728000    361.05326        21950        12475 
 4400000    1.0414132  -0.46137948      1728000    361.87609        22000        12503 
 4410000   0.97309706  -0.43998752      1728000    362.68041        22050        12531 
 4420000     1.002044  -0.44424306      1728000    363.47926        22100        12556 
 4430000   0.96166578  -0.46475004      1728000    364.27635        22150        12591 
 4440000    1.0207333  -0.47116178      1728000    365.08041        22200        12616 
 4450000     1.018956  -0.49531747      1728000     365.8882        22250        12641 
 4460000    1.0267871  -0.48241803      1728000    366.69225        22300        12667 
 4470000    1.0101319  -0.45748747      1728000    367.49439        22350        12701 
 4480000    1.0379925  -0.47705963      1728000    368.32124        22400        12730 
 4490000   0.99567498  -0.49677795      1728000    369.15112        22450        12753 
 4500000   0.94410387  -0.49899168      1728000    369.97611        22500        12776 
 4510000   0.93448112  -0.46686617      1728000    370.80102        22550        12806 
 4520000   0.99948954  -0.45651794      1728000    371.62632        22600        12836 
 4530000    1.0461319  -0.47903626      1728000    372.43432        22650        12869 
 4540000   0.95631961  -0.47111169      1728000    373.25436        22700        12898 
 4550000    1.0396326  -0.49463349      1728000    374.10312        22750        12928 
 4560000    1.0447079  -0.49469734      1728000    374.94846        22800        12953 
 4570000   0.97418553  -0.48129405      1728000    375.78031        22850        12976 
 4580000     0.997539  -0.46798105      1728000    376.61213        22900        12998 
 4590000    1.0460137  -0.47500496      1728000    377.43544        22950        13025 
 4600000   0.97673265  -0.45632393      1728000     378.2564        23000        13053 
 4610000    1.0193554  -0.47072697      1728000    379.07315        23050        13078 
 4620000   0.98618394  -0.43732327      1728000    379.90337        23100        13110 
 4630000   0.99864343  -0.43879053      1728000    380.72233        23150        13137 
 4640000   0.92863194  -0.43068814      1728000    381.53384        23200        13169 
 4650000    1.0441397  -0.40738557      1728000    382.35594        23250        13192 
 4660000   0.99947336  -0.45596473      1728000    383.18518        23300        13222 
 4670000   0.97862263  -0.43291017      1728000    384.04354        23350        13247 
 4680000     1.016311  -0.46197505      1728000    384.88874        23400        13271 
 4690000    1.0235586  -0.44402323      1728000    385.70186        23450        13297 
 4700000    1.0467977  -0.46960682      1728000    386.50903        23500        13329 
 4710000   0.96113098  -0.45962225      1728000    387.32055        23550        13359 
 4720000   0.99893291  -0.47796987      1728000    388.13666        23600        13385 
 4730000   0.97707778  -0.46998711      1728000    388.94105        23650        13414 
 4740000   0.95948981  -0.44922336      1728000    389.75146        23700        13443 
 4750000     1.040861  -0.45124404      1728000    390.57264        23750        13469 
 4760000      1.02041  -0.42705138      1728000    391.38236        23800        13497 
 4770000    1.0417956  -0.43453081      1728000    392.19119        23850        13524 
 4780000    1.0249358  -0.40952687      1728000    392.98878        23900        13550 
 4790000    1.0350481  -0.40281316      1728000    393.78539        23950        13579 
 4800000   0.95972759  -0.39998256      1728000    394.58912        24000        13605 
 4810000     0.980439  -0.39996658      1728000    395.39777        24050        13628 
 4820000    1.0028392  -0.41036511      1728000    396.20216        24100        13657 
 4830000   0.97537979  -0.44176317      1728000    397.01009        24150        13686 
 4840000    1.0338181  -0.43498431      1728000    397.82516        24200        13716 
 4850000    0.9669057  -0.45386097      1728000    398.63925        24250        13748 
 4860000    0.9895655  -0.47562814      1728000    399.46641        24300        13774 
 4870000    1.0035031  -0.44032292      1728000    400.28369        24350        13806 
 4880000    1.0175531  -0.42611789      1728000    401.09641        24400        13836 
 4890000   0.98347492  -0.42602053      1728000     401.8986        24450        13861 
 4900000   0.96900952  -0.43736101      1728000    402.71644        24500        13890 
 4910000    1.0107351   -0.4390478      1728000    403.53053        24550        13917 
 4920000     1.011941  -0.45912897      1728000     404.3434        24600        13945 
 4930000   0.97197135  -0.44697078      1728000    405.15922        24650        13972 
 4940000   0.94524868  -0.44082584      1728000    405.96747        24700        14006 
 4950000     1.030255  -0.42404217      1728000     406.7755        24750        14038 
 4960000    1.0497884  -0.44896231      1728000    407.58941        24800        14070 
 4970000   0.98014173   -0.4438931      1728000    408.41135        24850        14095 
 4980000     1.051577  -0.43150223      1728000    409.22632        24900        14123 
 4990000    1.0562465  -0.42496125      1728000    410.04026        24950        14152 
 5000000    1.0431745  -0.45012295      1728000    410.86927        25000        14176 
 5010000    1.0161355  -0.46615225      1728000    411.68044        25050        14206 
 5020000    1.0390684   -0.4588824      1728000    412.50597        25100        14238 
 5030000   0.94339629  -0.44623885      1728000    413.33631        25150        14266 
 5040000   0.98497603   -0.4515781      1728000    414.14448        25200        14297 
 5050000    1.0419716   -0.4221157      1728000     414.9627        25250        14325 
 5060000    1.0126712  -0.44741044      1728000    415.77218        25300        14351 
 5070000    1.0185956  -0.42688117      1728000    416.61818        25350        14373 
 5080000    1.0200507  -0.45072619      1728000     417.4342        25400        14398 
 5090000   0.93333997  -0.42136752      1728000    418.25421        25450        14427 
 5100000    1.0521812  -0.49527442      1728000    419.08227        25500        14456 
 5110000   0.92509136  -0.45253609      1728000    419.90394        25550        14480 
 5120000     1.029444  -0.46178291      1728000     420.7171        25600        14514 
 5130000   0.93690972  -0.45508587      1728000    421.53937        25650        14536 
 5140000    1.0312999   -0.4624106      1728000     422.3504        25700        14570 
 5150000    1.0315281   -0.4235255      1728000    423.16148        25750        14601 
 5160000    1.0228778  -0.42546756      1728000    423.97146        25800        14628 
 5170000    1.0162811  -0.40485997      1728000    424.77998        25850        14653 
 5180000    1.0099862  -0.41748664      1728000    425.59231        25900        14687 
 5190000   0.97370628  -0.43524435      1728000    426.42233        25950        14713 
 5200000    1.0371844  -0.44753911      1728000    427.26305        26000        14747 
 5210000   0.98207681  -0.44214541      1728000    428.08218        26050        14773 
 5220000   0.99023553  -0.43415273      1728000    428.91026        26100        14801 
 5230000    1.0202128  -0.42636989      1728000    429.73836        26150        14830 
 5240000    1.0322991  -0.43693701      1728000    430.57021        26200        14854 
 5250000    1.0450269  -0.47237914      1728000    431.40143        26250        14887 
 5260000    1.0347071  -0.46005705      1728000    432.23747        26300        14908 
 5270000   0.99281441  -0.44098819      1728000    433.09683        26350        14927 
 5280000   0.99112427  -0.43967197      1728000    433.90544        26400        14953 
 5290000   0.98834654  -0.45237449      1728000     434.7565        26450        14984 
 5300000    1.0466233  -0.43400423      1728000     435.6072        26500        15010 
 5310000    1.0118246  -0.45464654      1728000     436.4465        26550        15037 
 5320000   0.94526291  -0.41207521      1728000    437.27555        26600        15061 
 5330000    0.9596057  -0.43297311      1728000    438.09454        26650        15089 
 5340000    1.0346198  -0.45356149      1728000    438.92022        26700        15116 
 5350000    1.0093646   -0.4623816      1728000    439.73643        26750        15147 
 5360000    1.0242597  -0.42796718      1728000    440.57815        26800        15169 
 5370000    1.0170201  -0.43550921      1728000    441.41239        26850        15194 
 5380000   0.99985643  -0.45550954      1728000    442.23635        26900        15224 
 5390000   0.91668653  -0.43899022      1728000    443.07529        26950        15245 
 5400000   0.98051467   -0.4091616      1728000    443.89236        27000        15266 
 5410000   0.98575362  -0.45605836      1728000    444.73009        27050        15293 
 5420000   0.98748023  -0.44338809      1728000    445.56849        27100        15322 
 5430000    1.0005971  -0.46276573      1728000    446.41128        27150        15346 
 5440000   0.97978885   -0.5053701      1728000     447.2451        27200        15377 
 5450000   0.99264823  -0.46044926      1728000    448.06126        27250        15413 
 5460000    1.0846724  -0.46715838      1728000    448.87922        27300        15441 
 5470000    1.0194624  -0.46255417      1728000    449.69227        27350        15478 
 5480000    1.0093924  -0.45407475      1728000    450.51247        27400        15506 
 5490000    1.0493688   -0.4857097      1728000    451.32753        27450        15532 
 5500000    1.0430226  -0.47147769      1728000    452.14937        27500        15559 
 5510000   0.97127601  -0.46647274      1728000    452.96142        27550        15585 
 5520000   0.93987737  -0.42761431      1728000    453.76837        27600        15617 
 5530000    0.9443124  -0.45712739      1728000    454.58649        27650        15647 
 5540000   0.98481047  -0.44573987      1728000     455.4063        27700        15676 
 5550000     1.032516  -0.42517282      1728000    456.24942        27750        15705 
 5560000   0.97428299  -0.44085774      1728000     457.0854        27800        15736 
 5570000   0.99055674   -0.4461893      1728000    457.90086        27850        15769 
 5580000    1.0670315  -0.46917252      1728000    458.71931        27900        15793 
 5590000   0.91120413  -0.46874163      1728000    459.54018        27950        15820 
 5600000    1.0007065   -0.4427073      1728000    460.37124        28000        15843 
 5610000    1.0435599  -0.45956762      1728000    461.20735        28050        15870 
 5620000     1.050424   -0.4657114      1728000     462.0571        28100        15899 
 5630000    1.0121004  -0.47548806      1728000    462.89906        28150        15925 
 5640000   0.97508188  -0.47179827      1728000    463.72732        28200        15956 
 5650000    1.0016027  -0.46996318      1728000    464.55229        28250        15991 
 5660000    1.0070271  -0.48107296      1728000    465.39102        28300        16015 
 5670000     1.018029  -0.48278125      1728000    466.24618        28350        16048 
 5680000   0.99930002  -0.49127687      1728000    467.07619        28400        16074 
 5690000    0.9994432  -0.44522618      1728000    467.90521        28450        16100 
 5700000    1.0195227  -0.47413188      1728000     468.7395        28500        16133 
 5710000   0.99324626   -0.4658904      1728000    469.55724        28550        16159 
 5720000   0.99960848  -0.45103393      1728000    470.40836        28600        16190 
 5730000     1.060004  -0.44216932      1728000    471.23114        28650        16215 
 5740000   0.98509742  -0.42894154      1728000    472.15068        28700        16246 
 5750000   0.97667036  -0.49671647      1728000    473.01329        28750        16279 
 5760000    1.0093143  -0.46839149      1728000    473.84528        28800        16313 
 5770000    1.0559793  -0.43337052      1728000    474.64847        28850        16341 
 5780000   0.98756635  -0.44261994      1728000    475.45108        28900        16368 
 5790000    1.0096679  -0.43855123      1728000    476.26656        28950        16398 
 5800000     1.044186  -0.42340569      1728000    477.07231        29000        16432 
 5810000   0.98884085  -0.43757472      1728000    477.87907        29050        16455 
 5820000    1.0701373   -0.4375942      1728000    478.68142        29100        16483 
 5830000    1.0752804  -0.45850425      1728000    479.50223        29150        16514 
 5840000   0.96533923  -0.40364702      1728000    480.33429        29200        16541 
 5850000   0.94680106  -0.42314186      1728000    481.26749        29250        16571 
 5860000   0.98491052  -0.42936025      1728000     482.0935        29300        16596 
 5870000   0.99984718  -0.42543387      1728000    482.91548        29350        16626 
 5880000    1.0346298   -0.4181226      1728000    483.72452        29400        16648 
 5890000   0.97503349  -0.43963547      1728000    484.56751        29450        16676 
 5900000    1.0058234  -0.42610555      1728000    485.39734        29500        16705 
 5910000   0.99994533  -0.43492026      1728000    486.20738        29550        16730 
 5920000    0.9627686  -0.41971189      1728000    487.02978        29600        16769 
 5930000    1.0124629  -0.43475572      1728000    487.84031        29650        16794 
 5940000   0.97785948   -0.4490596      1728000    488.65751        29700        16822 
 5950000   0.96499469  -0.45396494      1728000    489.47559        29750        16856 
 5960000   0.94287823  -0.48312141      1728000    490.32424        29800        16879 
 5970000   0.97048327  -0.46908594      1728000    491.14457        29850        16905 
 5980000   0.93626785  -0.45910632      1728000     491.9665        29900        16937 
 5990000   0.91433581   -0.4830193      1728000    492.78606        29950        16967 
 6000000   0.95481603  -0.45206991      1728000    493.61234        30000        16996 
 6010000   0.98405549   -0.4305625      1728000    494.41755        30050        17032 
 6020000    1.0313661  -0.43363462      1728000    495.22344        30100        17055 
 6030000   0.98655902  -0.45786229      1728000    496.02828        30150        17085 
 6040000    1.0715871  -0.41883353      1728000    496.83228        30200        17114 
 6050000   0.99681601  -0.44475828      1728000     497.6463        30250        17134 
 6060000    1.0296783   -0.4327434      1728000    498.45859        30300        17158 
 6070000    1.0150036   -0.4523097      1728000    499.27349        30350        17186 
 6080000   0.99967082  -0.43576855      1728000    500.09449        30400        17215 
 6090000   0.97915336  -0.41129237      1728000     500.9144        30450        17243 
 6100000    1.0063304  -0.40286678      1728000    501.72545        30500        17273 
 6110000    0.9585069  -0.40537549      1728000    502.53259        30550        17302 
 6120000    1.0168208  -0.41689133      1728000    503.34151        30600        17326 
 6130000    1.0179112  -0.43860537      1728000    504.15184        30650        17351 
 6140000    1.0286596  -0.43047641      1728000    504.95967        30700        17384 
 6150000   0.96018858  -0.46502484      1728000    505.76632        30750        17415 
 6160000    1.0024675  -0.43609729      1728000    506.58232        30800        17448 
 6170000   0.96216982  -0.44700709      1728000    507.39456        30850        17481 
 6180000   0.98728603  -0.42155542      1728000    508.19645        30900        17507 
 6190000   0.98045467  -0.43538917      1728000    508.99962        30950        17537 
 6200000   0.98712541  -0.41455213      1728000    509.81554        31000        17562 
 6210000   0.94168654  -0.40938812      1728000    510.61129        31050        17591 
 6220000    1.0076473  -0.39769247      1728000     511.4074        31100        17625 
 6230000   0.98131382  -0.41694214      1728000    512.20732        31150        17654 
 6240000   0.98059939  -0.39952287      1728000    512.99553        31200        17682 
 6250000    1.0238417  -0.38660967      1728000    513.78952        31250        17712 
 6260000   0.99286613  -0.37993296      1728000    514.59256        31300        17739 
 6270000   0.99623827  -0.39488611      1728000    515.38739        31350        17771 
 6280000    1.0524883  -0.40475305      1728000    516.18747        31400        17801 
 6290000    1.0949532  -0.43547249      1728000    516.99957        31450        17832 
 6300000    1.0239198  -0.41846705      1728000    517.80554        31500        17861 
 6310000   0.98215531  -0.38761118      1728000    518.60629        31550        17893 
 6320000   0.94910083  -0.40343046      1728000    519.40217        31600        17918 
 6330000    1.0377312  -0.39086916      1728000    520.19462        31650        17946 
 6340000   0.97272845  -0.38692972      1728000    520.99124        31700        17973 
 6350000   0.99005405  -0.39172462      1728000    521.78792        31750        17999 
 6360000   0.96631207  -0.41431964      1728000     522.5844        31800        18027 
 6370000   0.99233001  -0.39157403      1728000    523.38152        31850        18055 
 6380000   0.99939822  -0.41103527      1728000    524.18357        31900        18086 
 6390000   0.99897215  -0.42346705      1728000    524.98715        31950        18111 
 6400000    0.9540541  -0.45880066      1728000    525.79834        32000        18137 
 6410000   0.99177735  -0.44177316      1728000    526.60839        32050        18161 
 6420000     1.004002  -0.43634397      1728000    527.42056        32100        18193 
 6430000    1.0128535  -0.42804754      1728000    528.22547        32150        18221 
 6440000    1.0147501  -0.40300918      1728000    529.02432        32200        18254 
 6450000   0.94838606  -0.41572858      1728000    529.84536        32250        18278 
 6460000    1.0045146  -0.42879824      1728000    530.65065        32300        18313 
 6470000    1.0170923  -0.43713331      1728000    531.45463        32350        18343 
 6480000   0.98277005  -0.41833919      1728000    532.27435        32400        18372 
 6490000    1.0248204   -0.4136954      1728000      533.085        32450        18396 
 6500000    1.0484559  -0.38463103      1728000     533.8954        32500        18426 
 6510000    1.0014189  -0.41312116      1728000    534.70144        32550        18457 
 6520000   0.94376532  -0.46516749      1728000    535.52645        32600        18489 
 6530000    1.0065601  -0.42557441      1728000    536.33936        32650        18524 
 6540000   0.99189608  -0.46239594      1728000     537.1524        32700        18550 
 6550000    1.0328576  -0.45633275      1728000    537.97144        32750        18579 
 6560000    1.0280459  -0.43437789      1728000    538.79043        32800        18608 
 6570000   0.95688168  -0.43608691      1728000    539.60522        32850        18636 
 6580000    1.0278752  -0.47535404      1728000    540.42434        32900        18664 
 6590000   0.97325438  -0.45640553      1728000    541.25239        32950        18692 
 6600000    1.0142155  -0.43435171      1728000    542.07639        33000        18721 
 6610000    0.9920186  -0.46883094      1728000    542.89129        33050        18749 
 6620000   0.99605739  -0.48592719      1728000     543.7244        33100        18774 
 6630000   0.96710717  -0.46049598      1728000    544.53933        33150        18799 
 6640000   0.93250453  -0.43105864      1728000    545.36235        33200        18829 
 6650000    1.0168679  -0.42415977      1728000    546.18837        33250        18850 
 6660000    1.0425708  -0.43795689      1728000    546.99928        33300        18885 
 6670000    0.9879509  -0.40773017      1728000    547.81243        33350        18917 
 6680000   0.96905554  -0.43327499      1728000    548.61647        33400        18945 
 6690000    1.0023245  -0.37523499      1728000    549.42225        33450        18976 
 6700000   0.95071471  -0.38485449      1728000     550.2302        33500        19004 
 6710000    1.0087778  -0.39596033      1728000     551.0275        33550        19034 
 6720000   0.99460073  -0.37790576      1728000    551.82541        33600        19065 
 6730000   0.95836374  -0.37208066      1728000    552.61539        33650        19102 
 6740000    1.0345823   -0.3363813      1728000    553.41451        33700        19131 
 6750000    1.0225151  -0.36752231      1728000    554.20937        33750        19160 
 6760000   0.98350976  -0.39375931      1728000     555.0184        33800        19186 
 6770000    1.0066094  -0.39195257      1728000    555.82743        33850        19210 
 6780000    1.0302947  -0.39157793      1728000    556.63434        33900        19240 
 6790000    1.0136276  -0.37303539      1728000    557.43838        33950        19266 
 6800000    1.0295423  -0.41144922      1728000    558.24734        34000        19293 
 6810000   0.98838076  -0.40112676      1728000    559.06344        34050        19316 
 6820000   0.98851114  -0.39149992      1728000     559.8766        34100        19343 
 6830000   0.95676699  -0.38659228      1728000    560.69694        34150        19374 
 6840000   0.94402248  -0.38145881      1728000     561.5062        34200        19402 
 6850000   0.98841316  -0.36498162      1728000    562.31901        34250        19433 
 6860000   0.99941556  -0.39919355      1728000    563.14121        34300        19458 
 6870000    1.0039704  -0.38069546      1728000    563.95744        34350        19492 
 6880000   0.95992238   -0.3764115      1728000    564.76817        34400        19522 
 6890000    1.0257106  -0.39929535      1728000    565.57941        34450        19554 
 6900000    1.0249835  -0.39332276      1728000    566.38039        34500        19589 
 6910000   0.94700708  -0.37073335      1728000    567.20539        34550        19624 
 6920000    1.0612618   -0.3786597      1728000    568.01743        34600        19653 
 6930000    1.0345503  -0.34101023      1728000    568.81739        34650        19683 
 6940000    1.0272346  -0.36656463      1728000     569.6425        34700        19715 
 6950000     1.027578  -0.41490016      1728000    570.44322        34750        19746 
 6960000   0.99478571  -0.42684194      1728000    571.25038        34800        19771 
 6970000    1.0404916   -0.4160807      1728000    572.05757        34850        19800 
 6980000    1.0100964  -0.41819549      1728000    572.86815        34900        19825 
 6990000   0.99988736  -0.43529866      1728000    573.67529        34950        19853 
 7000000     1.060308  -0.42280407      1728000     574.4984        35000        19878 
 7010000   0.96031265  -0.44344196      1728000    575.33513        35050        19902 
 7020000   0.97524728  -0.48031368      1728000    576.15435        35100        19926 
 7030000   0.95336788  -0.43813141      1728000    576.96636        35150        19949 
 7040000    1.0037112  -0.41874162      1728000    577.77834        35200        19976 
 7050000    1.0855977  -0.40726102      1728000    578.58726        35250        20006 
 7060000    1.0044856   -0.3966764      1728000    579.39759        35300        20032 
 7070000   0.99047161   -0.3969156      1728000    580.21441        35350        20064 
 7080000    1.0224104  -0.38249049      1728000    581.02477        35400        20096 
 7090000    1.0018909  -0.37548498      1728000    581.82244        35450        20133 
 7100000   0.92797102  -0.39265785      1728000    582.63042        35500        20160 
 7110000   0.99644023   -0.4202979      1728000    583.43559        35550        20193 
 7120000   0.95835453  -0.38993648      1728000    584.23748        35600        20227 
 7130000    1.0235542  -0.40300263      1728000    585.02855        35650        20262 
 7140000   0.93953784  -0.41127297      1728000    585.83373        35700        20291 
 7150000    1.0502996  -0.42173355      1728000    586.63967        35750        20317 
 7160000    1.0250596  -0.41018444      1728000    587.44509        35800        20348 
 7170000    1.0032784  -0.42445016      1728000    588.24943        35850        20378 
 7180000    1.0156042  -0.42181167      1728000    589.04952        35900        20400 
 7190000   0.95843738   -0.4067128      1728000    589.84647        35950        20427 
 7200000     1.018479  -0.42459992      1728000    590.65549        36000        20455 
 7210000   0.94538811   -0.4157662      1728000     591.4514        36050        20483 
 7220000     1.013017  -0.43947289      1728000    592.25428        36100        20512 
 7230000    1.0039753  -0.40576386      1728000    593.05344        36150        20542 
 7240000   0.96034848  -0.42254757      1728000    593.84435        36200        20572 
 7250000   0.99016611  -0.41071353      1728000    594.63434        36250        20599 
 7260000    0.9529442  -0.41888211      1728000    595.42754        36300        20632 
 7270000   0.97370624  -0.40903905      1728000    596.22227        36350        20663 
 7280000    1.0082371  -0.42142099      1728000    597.02219        36400        20690 
 7290000   0.96290486  -0.43636775      1728000    597.82855        36450        20715 
 7300000    1.0726564   -0.4298743      1728000    598.63838        36500        20749 
 7310000    1.0085916   -0.4053394      1728000    599.45247        36550        20772 
 7320000    1.0691956  -0.41332659      1728000    600.25651        36600        20797 
 7330000   0.97035235  -0.41210116      1728000    601.06451        36650        20824 
 7340000    1.0384098  -0.42690252      1728000    601.86441        36700        20852 
 7350000    1.0411113  -0.45514574      1728000    602.68946        36750        20879 
 7360000    1.0013132  -0.49604451      1728000    603.50613        36800        20899 
 7370000   0.99334989  -0.45089244      1728000    604.32446        36850        20922 
 7380000   0.98608244  -0.45028657      1728000    605.12938        36900        20949 
 7390000    1.0309345  -0.46665245      1728000    605.93744        36950        20982 
 7400000    0.9974593  -0.47088155      1728000    606.76434        37000        21005 
 7410000   0.97083419  -0.47312937      1728000    607.59144        37050        21035 
 7420000    0.9904281  -0.47279412      1728000    608.41752        37100        21061 
 7430000    1.0012906  -0.47388403      1728000    609.23048        37150        21085 
 7440000    0.9370948  -0.46126357      1728000    610.05737        37200        21108 
 7450000    1.0166279  -0.47460463      1728000    610.87444        37250        21135 
 7460000    1.0151493   -0.5137073      1728000    611.69546        37300        21160 
 7470000   0.96171454  -0.47936827      1728000    612.50567        37350        21187 
 7480000    1.0125341  -0.49087403      1728000    613.31555        37400        21218 
 7490000    1.0266623  -0.46580802      1728000    614.12245        37450        21249 
 7500000    1.0047704   -0.4719327      1728000    614.93747        37500        21276 
 7510000    1.0229085  -0.46754883      1728000    615.75251        37550        21303 
 7520000    0.9889197  -0.45399725      1728000    616.56443        37600        21333 
 7530000   0.99765411  -0.41636535      1728000    617.36851        37650        21364 
 7540000    1.0082132  -0.41268799      1728000    618.17249        37700        21393 
 7550000    1.0257382  -0.43219374      1728000    618.97041        37750        21420 
 7560000    1.0251347  -0.42825936      1728000    619.77181        37800        21449 
 7570000    1.0111071  -0.42735669      1728000    620.57634        37850        21482 
 7580000     1.073113  -0.44142335      1728000    621.37753        37900        21513 
 7590000    1.0032726  -0.43340169      1728000    622.18257        37950        21542 
 7600000      1.03282  -0.44117873      1728000     622.9993        38000        21569 
 7610000   0.94145753  -0.45611972      1728000    623.80751        38050        21599 
 7620000    1.0009617  -0.43783288      1728000    624.62239        38100        21629 
 7630000    1.0198443  -0.42840078      1728000    625.42853        38150        21662 
 7640000   0.96896947  -0.42975698      1728000    626.22548        38200        21692 
 7650000     1.022347  -0.43097063      1728000    627.03453        38250        21720 
 7660000   0.94861356  -0.44360933      1728000    627.83291        38300        21748 
 7670000    0.9596652  -0.40695189      1728000    628.62871        38350        21776 
 7680000   0.97107054  -0.39884764      1728000    629.42264        38400        21813 
 7690000   0.99695006  -0.44196305      1728000    630.22095        38450        21840 
 7700000   0.95407831  -0.43549159      1728000    631.03138        38500        21870 
 7710000    1.0299046  -0.41433714      1728000    631.83303        38550        21899 
[...]
47970000     1.100596  -0.52623465      1728000    3936.4748       239850       136387 
47980000    1.0707329  -0.50419416      1728000    3937.3001       239900       136410 
47990000    1.0503498   -0.5166875      1728000    3938.1311       239950       136436 
48000000   0.98027921  -0.56702442      1728000    3938.9791       240000       136456 
48010000   0.99190205  -0.51876318      1728000    3939.8169       240050       136483 
48020000    1.0627844  -0.49420539      1728000    3940.6453       240100       136512 
48030000     1.030851  -0.51963187      1728000    3941.4769       240150       136540 
48040000    1.0269012  -0.48631453      1728000    3942.3262       240200       136561 
48050000    1.0072584  -0.49471794      1728000    3943.1535       240250       136585 
48060000   0.99976798  -0.48770802      1728000    3943.9821       240300       136614 
48070000   0.98731698  -0.45588382      1728000    3944.8179       240350       136640 
48080000    1.0141595  -0.48482605      1728000    3945.6409       240400       136663 
48090000    1.0154739  -0.49822288      1728000    3946.4669       240450       136685 
48100000    1.0331339  -0.50441166      1728000    3947.2981       240500       136702 
48110000    1.0555727  -0.49856166      1728000    3948.1062       240550       136727 
48120000   0.99991612  -0.48866819      1728000    3948.9104       240600       136762 
48130000   0.99761234  -0.45667337      1728000    3949.7231       240650       136790 
48140000    1.0251336   -0.4818876      1728000    3950.5372       240700       136816 
48150000    1.0015801  -0.50415828      1728000    3951.3551       240750       136835 
48160000    1.0532531  -0.49169031      1728000     3952.174       240800       136859 
48170000   0.96745846  -0.50142155      1728000    3952.9959       240850       136887 
48180000    0.9972223    -0.516872      1728000    3953.8207       240900       136911 
48190000      0.96494  -0.50464527      1728000    3954.6531       240950       136935 
48200000    1.0162318  -0.45637721      1728000    3955.4849       241000       136961 
48210000   0.94213006  -0.47888442      1728000    3956.3022       241050       136987 
48220000    1.0589906   -0.4478383      1728000    3957.1169       241100       137019 
48230000    1.0388266  -0.47527869      1728000    3957.9511       241150       137043 
48240000    1.0855539  -0.45840268      1728000    3958.7691       241200       137069 
48250000   0.99953271   -0.4998079      1728000    3959.5808       241250       137095 
48260000    1.0132382  -0.47451041      1728000    3960.3902       241300       137127 
48270000    1.0433168  -0.43858102      1728000    3961.1981       241350       137149 
48280000    1.0325331  -0.46812219      1728000    3962.0148       241400       137180 
48290000   0.98390857  -0.48518355      1728000    3962.8341       241450       137211 
48300000    1.0044321  -0.50683709      1728000    3963.6649       241500       137241 
48310000      1.01202  -0.50200026      1728000    3964.5018       241550       137265 
48320000    1.0478373  -0.49581658      1728000    3965.3302       241600       137289 
48330000    1.0275227  -0.48606914      1728000    3966.1541       241650       137318 
48340000   0.96531307  -0.51182317      1728000    3966.9957       241700       137343 
48350000   0.94391973  -0.51668885      1728000    3967.8312       241750       137370 
48360000    1.0435535  -0.48786608      1728000    3968.6579       241800       137395 
48370000   0.96936872  -0.48562268      1728000    3969.4631       241850       137421 
48380000   0.99435696  -0.48655791      1728000    3970.2771       241900       137447 
48390000   0.95534157  -0.45554456      1728000    3971.0842       241950       137472 
48400000   0.98561843   -0.4702318      1728000     3971.906       242000       137505 
48410000    1.0168361  -0.44588794      1728000     3972.728       242050       137533 
48420000    1.0095688  -0.46230545      1728000    3973.5639       242100       137554 
48430000   0.97454718   -0.4542939      1728000    3974.3751       242150       137591 
48440000    1.0098328  -0.44821639      1728000    3975.1928       242200       137618 
48450000   0.98312998  -0.44625688      1728000    3976.0351       242250       137645 
48460000    1.0501662  -0.42715985      1728000    3976.8671       242300       137672 
48470000   0.97523977  -0.46712536      1728000    3977.6901       242350       137700 
48480000   0.99115542  -0.45174818      1728000     3978.496       242400       137731 
48490000     1.004767  -0.47420671      1728000       3979.3       242450       137758 
48500000   0.98566309  -0.50340199      1728000      3980.12       242500       137785 
48510000    1.0144417  -0.49038519      1728000    3980.9981       242550       137809 
48520000   0.96313719  -0.51596817      1728000    3981.8234       242600       137836 
48530000    1.0087015  -0.52698198      1728000    3982.6858       242650       137860 
48540000    1.0118363  -0.55368315      1728000    3983.5749       242700       137886 
48550000   0.99633194  -0.52126815      1728000     3984.393       242750       137907 
48560000   0.97198318  -0.54318286      1728000    3985.2342       242800       137933 
48570000     1.009819  -0.56355189      1728000    3986.0713       242850       137954 
48580000    0.9630361  -0.56924097      1728000    3986.9186       242900       137970 
48590000   0.97527597  -0.57687467      1728000    3987.7601       242950       137991 
48600000   0.97358105   -0.5267739      1728000    3988.6011       243000       138018 
48610000   0.97388842  -0.54613659      1728000    3989.4332       243050       138047 
48620000    1.0658045   -0.4963391      1728000    3990.2662       243100       138074 
48630000    1.0068131  -0.50884773      1728000    3991.1131       243150       138104 
48640000   0.95713394  -0.49340131      1728000    3991.9811       243200       138129 
48650000   0.96165587  -0.53467831      1728000     3992.819       243250       138158 
48660000    1.0645637  -0.48815906      1728000    3993.6622       243300       138188 
48670000    1.0484571  -0.50129262      1728000    3994.5127       243350       138214 
48680000    1.0185776  -0.49630431      1728000    3995.3503       243400       138240 
48690000   0.96576314  -0.49639422      1728000    3996.1974       243450       138262 
48700000   0.94483057  -0.53581096      1728000    3997.0461       243500       138291 
48710000     1.007966  -0.52340739      1728000    3997.8929       243550       138316 
48720000    1.0347126  -0.45078535      1728000    3998.7579       243600       138343 
48730000   0.99704773  -0.44775564      1728000    3999.6382       243650       138369 
48740000    1.0018027  -0.47842571      1728000    4000.5799       243700       138403 
48750000    0.9856601  -0.44987162      1728000    4001.4202       243750       138431 
48760000    1.0143725  -0.46868879      1728000     4002.307       243800       138461 
48770000   0.96459359  -0.46278488      1728000     4003.168       243850       138490 
48780000    1.0035021  -0.47012483      1728000    4004.0091       243900       138521 
48790000   0.98284616  -0.49822116      1728000    4004.8238       243950       138555 
48800000    1.0259323  -0.46557995      1728000     4005.661       244000       138584 
48810000    1.0039304  -0.48070067      1728000    4006.5027       244050       138612 
48820000     1.034266   -0.4775018      1728000    4007.3222       244100       138645 
48830000    1.0717495  -0.50877546      1728000    4008.1211       244150       138677 
48840000   0.97661683  -0.50792056      1728000    4008.9542       244200       138704 
48850000   0.98182399   -0.4951737      1728000    4009.7711       244250       138732 
48860000   0.98897862  -0.54435311      1728000    4010.6011       244300       138757 
48870000   0.98931449  -0.50577783      1728000    4011.4352       244350       138779 
48880000   0.99296139  -0.52038535      1728000    4012.2662       244400       138807 
48890000   0.99033589  -0.46600069      1728000    4013.0872       244450       138839 
48900000   0.94868884  -0.49775921      1728000      4013.94       244500       138862 
48910000    1.0055392  -0.49092386      1728000    4014.7997       244550       138889 
48920000   0.96010804  -0.47397492      1728000     4015.642       244600       138914 
48930000   0.99418876  -0.50208629      1728000    4016.4712       244650       138940 
48940000    1.0249171  -0.47844667      1728000    4017.3079       244700       138966 
48950000   0.96308843  -0.51057002      1728000     4018.178       244750       138991 
48960000   0.99378363  -0.47415461      1728000    4019.0303       244800       139009 
48970000    1.0620277  -0.47633194      1728000    4019.8953       244850       139034 
48980000   0.99441916  -0.48358433      1728000    4020.7349       244900       139060 
48990000   0.97800707  -0.48240869      1728000    4021.5657       244950       139089 
49000000    1.0675053  -0.47079828      1728000    4022.4079       245000       139111 
49010000   0.98319395  -0.48399578      1728000    4023.2261       245050       139141 
49020000    1.0355222  -0.46298965      1728000    4024.0434       245100       139168 
49030000    1.0549765  -0.47234488      1728000    4024.8424       245150       139203 
49040000   0.99459732  -0.44447228      1728000    4025.6541       245200       139232 
49050000    1.0037153   -0.4697854      1728000     4026.466       245250       139256 
49060000   0.97941071  -0.46026728      1728000     4027.286       245300       139281 
49070000    1.0006149  -0.45154622      1728000    4028.0989       245350       139307 
49080000   0.99345713   -0.4237227      1728000    4028.9182       245400       139336 
49090000    1.0482785  -0.48252144      1728000     4029.726       245450       139367 
49100000   0.98809704   -0.4750951      1728000     4030.552       245500       139389 
49110000    0.9556562  -0.47520245      1728000     4031.369       245550       139419 
49120000    1.0041018  -0.46890119      1728000    4032.1741       245600       139447 
49130000    1.0115352  -0.47976773      1728000    4032.9911       245650       139475 
49140000   0.92776871  -0.48335127      1728000    4033.8122       245700       139511 
49150000    1.0028667   -0.4674142      1728000     4034.662       245750       139537 
49160000   0.96793218  -0.48447776      1728000     4035.493       245800       139568 
49170000    1.0251612  -0.48101744      1728000     4036.334       245850       139594 
49180000    1.0246578  -0.45328623      1728000    4037.1772       245900       139619 
49190000    1.0012873  -0.44002686      1728000    4038.0103       245950       139649 
49200000   0.98819196  -0.43485771      1728000    4038.8449       246000       139676 
49210000   0.99129935  -0.42924738      1728000    4039.6848       246050       139705 
49220000   0.98952343  -0.44720374      1728000    4040.5191       246100       139733 
49230000   0.99028107  -0.42851091      1728000     4041.347       246150       139762 
49240000   0.96713118  -0.42655757      1728000    4042.1611       246200       139793 
49250000   0.98689193  -0.41462048      1728000    4042.9841       246250       139820 
49260000   0.99256757  -0.44370182      1728000    4043.8049       246300       139854 
49270000    1.0444234  -0.48519227      1728000    4044.6363       246350       139884 
49280000    1.0400402  -0.41585871      1728000     4045.475       246400       139915 
49290000   0.94905371  -0.43056285      1728000    4046.3041       246450       139944 
49300000   0.99071182  -0.40375415      1728000     4047.129       246500       139974 
49310000    1.0261385  -0.40481051      1728000    4047.9411       246550       140003 
49320000    1.0500907  -0.44266811      1728000    4048.7481       246600       140035 
49330000    1.0351287  -0.43276475      1728000    4049.5631       246650       140070 
49340000   0.92210612  -0.45245384      1728000    4050.3792       246700       140101 
49350000    1.0352566  -0.41707086      1728000    4051.1929       246750       140131 
49360000    1.0045987  -0.43667842      1728000     4052.013       246800       140157 
49370000   0.95738595  -0.43495298      1728000    4052.8511       246850       140189 
49380000    1.0293409  -0.41512553      1728000    4053.6661       246900       140223 
49390000    1.0562661  -0.45348254      1728000    4054.4862       246950       140249 
49400000   0.98662103  -0.47667892      1728000    4055.3081       247000       140282 
49410000   0.99257525  -0.46058464      1728000    4056.1221       247050       140308 
49420000    1.0374335  -0.46515698      1728000    4056.9357       247100       140335 
49430000    1.0052136     -0.45986      1728000    4057.7572       247150       140362 
49440000   0.97988453  -0.43828035      1728000    4058.5861       247200       140385 
49450000    1.0309477  -0.42598525      1728000    4059.3932       247250       140409 
49460000   0.98715231  -0.41681348      1728000    4060.2059       247300       140438 
49470000     1.003154  -0.43675111      1728000    4061.0121       247350       140474 
49480000    1.0075903  -0.42301443      1728000    4061.8092       247400       140506 
49490000   0.95834837  -0.43686871      1728000    4062.6152       247450       140531 
49500000    1.0750324  -0.45625963      1728000    4063.4739       247500       140562 
49510000   0.97508264  -0.44853911      1728000    4064.2832       247550       140585 
49520000    1.0028942  -0.46256556      1728000    4065.1022       247600       140614 
49530000   0.97830134  -0.43797225      1728000    4065.9522       247650       140638 
49540000   0.96203168  -0.39545524      1728000    4066.7722       247700       140666 
49550000   0.95759238  -0.42968993      1728000     4067.609       247750       140686 
49560000    1.0317942  -0.40981677      1728000    4068.4412       247800       140710 
49570000    1.0510396  -0.45192836      1728000    4069.2839       247850       140744 
49580000   0.97588083  -0.42851617      1728000     4070.097       247900       140774 
49590000    1.0426164  -0.44595957      1728000    4070.9592       247950       140801 
49600000    1.0118736  -0.45165392      1728000    4071.7683       248000       140835 
49610000    1.0870774  -0.45536355      1728000    4072.5752       248050       140864 
49620000   0.99544429  -0.44222255      1728000    4073.3702       248100       140891 
49630000    0.9783805  -0.43087123      1728000    4074.1813       248150       140919 
49640000   0.96612678  -0.46883754      1728000     4074.999       248200       140943 
49650000   0.98019706  -0.47017227      1728000    4075.8153       248250       140973 
49660000    1.0183155  -0.43831024      1728000    4076.6402       248300       141005 
49670000    1.0015831   -0.4391567      1728000     4077.455       248350       141029 
49680000   0.98284059  -0.45194087      1728000    4078.2982       248400       141056 
49690000   0.95639152  -0.44648216      1728000    4079.1119       248450       141087 
49700000    1.0049577  -0.43180543      1728000     4079.962       248500       141115 
49710000    1.0003063  -0.44969203      1728000    4080.8007       248550       141142 
49720000    1.0195679  -0.45243342      1728000    4081.6385       248600       141172 
49730000   0.96771074  -0.43014907      1728000    4082.4381       248650       141201 
49740000      1.01701  -0.41849853      1728000    4083.2629       248700       141227 
49750000    1.0092697  -0.42337057      1728000    4084.0672       248750       141261 
49760000   0.96782369  -0.44557501      1728000    4084.8764       248800       141292 
49770000    1.0135146  -0.42705693      1728000    4085.6806       248850       141316 
49780000    1.0243329  -0.45238241      1728000    4086.4839       248900       141345 
49790000    1.0018399  -0.44723986      1728000    4087.2812       248950       141379 
49800000    1.0106775  -0.45615812      1728000    4088.0762       249000       141409 
49810000    1.0834958   -0.4666818      1728000     4088.866       249050       141437 
49820000   0.98212609  -0.46114063      1728000    4089.6623       249100       141462 
49830000   0.98051965  -0.49333344      1728000    4090.4682       249150       141489 
49840000    1.0187517  -0.46593915      1728000     4091.284       249200       141515 
49850000   0.97218095  -0.49598271      1728000    4092.0951       249250       141546 
49860000    1.0256739  -0.48247647      1728000    4092.9093       249300       141573 
49870000   0.98809285  -0.47159234      1728000    4093.7213       249350       141602 
49880000    1.0398824  -0.49611289      1728000    4094.5344       249400       141628 
49890000   0.97125891   -0.5062739      1728000    4095.3401       249450       141658 
49900000    1.0069864  -0.48512858      1728000    4096.1561       249500       141683 
49910000   0.96150277  -0.53367088      1728000    4096.9651       249550       141708 
49920000     1.011385  -0.48732636      1728000    4097.7952       249600       141740 
49930000   0.98856847  -0.49135769      1728000    4098.6071       249650       141763 
49940000   0.97370927  -0.51681777      1728000    4099.4233       249700       141790 
49950000    1.0174825  -0.49245734      1728000    4100.2481       249750       141815 
49960000   0.99965205  -0.46586694      1728000    4101.0791       249800       141840 
49970000    1.0199242  -0.46646732      1728000    4101.9002       249850       141869 
49980000    1.0504847  -0.51478762      1728000    4102.7214       249900       141903 
49990000    1.0285653  -0.49055979      1728000    4103.5482       249950       141924 
50000000    1.0174216    -0.479001      1728000    4104.3711       250000       141947 
Loop time of 4104.37 on 1 procs for 50000000 steps with 500 atoms

Performance: 10525358.951 tau/day, 12182.128 timesteps/s
99.3% CPU use with 1 MPI tasks x 1 OpenMP threads

MPI task timing breakdown:
Section |  min time  |  avg time  |  max time  |%varavg| %total
---------------------------------------------------------------
Pair    | 732.27     | 732.27     | 732.27     |   0.0 | 17.84
Bond    | 1050.9     | 1050.9     | 1050.9     |   0.0 | 25.60
Neigh   | 800.81     | 800.81     | 800.81     |   0.0 | 19.51
Comm    | 32.081     | 32.081     | 32.081     |   0.0 |  0.78
Output  | 14.684     | 14.684     | 14.684     |   0.0 |  0.36
Modify  | 1423.9     | 1423.9     | 1423.9     |   0.0 | 34.69
Other   |            | 49.8       |            |       |  1.21

Nlocal:    500 ave 500 max 500 min
Histogram: 1 0 0 0 0 0 0 0 0 0
Nghost:    0 ave 0 max 0 min
Histogram: 1 0 0 0 0 0 0 0 0 0
Neighs:    1664 ave 1664 max 1664 min
Histogram: 1 0 0 0 0 0 0 0 0 0

Total # of neighbors = 1664
Ave neighs/atom = 3.328
Ave special neighs/atom = 5.976
Neighbor list builds = 2659339
Dangerous builds = 0

################
## ULOOP    ####
################
clear
OMP_NUM_THREADS environment is not set. Defaulting to 1 thread. (../comm.cpp:87)
  using 1 OpenMP thread(s) per MPI task
variable rname delete
variable simname delete
variable folder delete
variable seed delete
variable E delete
variable RW delete
variable SimOutType delete
variable SimInType delete
variable jn delete
variable jf delete

next jbn
Increment via next: value 2 on partition 0
jump SELF #last line!!!

### If e.g. I run this on 10 partitions of 1 processor,
### and initialise the variable with 'uloop N'
### it will run 10 simulations with 'jobnumber' taking
### values 1-10. Then when a particular simulation finishes, the
### script will be run again with the next value of jobnumber,
### until N simulations have been run.
## SO ULOOP IS "SERIAL" BUT FOR SURE 10x1 PROCs ARE ALWAYS BUSY
Total wall time: 1:08:34
