LAMMPS (1 Feb 2019)
OMP_NUM_THREADS environment is not set. Defaulting to 1 thread. (../comm.cpp:87)
  using 1 OpenMP thread(s) per MPI task
####################################
####	ULOOP			####
####################################
variable jbn uloop 1  # run n simulations
variable startfrom equal 0
variable jn equal ${jbn}+${startfrom}
variable jn equal 1+${startfrom}
variable jn equal 1+0
print ${jn}
print 1
1
variable seed equal (8+4)*51-2*8
variable seedr equal (8+2)*22

#
variable N equal 2000
timestep 0.01
variable Dt equal 100000
variable Temp equal 1.0
variable Norm equal 0.88585294441338
if "${jn} <= 20" then "variable E equal 0.8"
variable E equal 0.8
#if "${jn} > 2 && ${jn} <= 4" then "variable E equal 1.5"
#if "${jn} > 4 && ${jn} <= 6" then "variable E equal 2.0"
#if "${jn} > 6 && ${jn} <= 8" then "variable E equal 2.5"
#if "${jn} > 8 && ${jn} <= 10" then "variable E equal 3.0"
#if "${jn} > 10 && ${jn} <= 12" then "variable E equal 3.5"
#if "${jn} > 12 && ${jn} <= 14" then "variable E equal 4.0"
#if "${jn} > 14 && ${jn} <= 16" then "variable E equal 4.5"
#if "${jn} > 16 && ${jn} <= 18" then "variable E equal 5.0"

#
####################################
####	DEFINTIONS 	########
####################################
#
variable N equal 500
variable folder index RW_Dt${Dt}_E${E}
variable folder index RW_Dt100000_E${E}
variable folder index RW_Dt100000_E0.8
shell mkdir ${folder}
shell mkdir RW_Dt100000_E0.8
variable SimOutType index RW${jn}Dt${Dt}E${E}
variable SimOutType index RW1Dt${Dt}E${E}
variable SimOutType index RW1Dt100000E${E}
variable SimOutType index RW1Dt100000E0.8
variable rname index INIT/Poly.N${N}.dat
variable rname index INIT/Poly.N500.dat
variable simname index Poly.N${N}.${SimOutType}
variable simname index Poly.N500.${SimOutType}
variable simname index Poly.N500.RW1Dt100000E0.8
#
units lj
atom_style angle
boundary        p p p
neighbor 1.3 bin
neigh_modify every 5 delay 5 check yes
#
restart 1000000 ${folder}/Restart.neutr.${simname}.
restart 1000000 RW_Dt100000_E0.8/Restart.neutr.${simname}.
restart 1000000 RW_Dt100000_E0.8/Restart.neutr.Poly.N500.RW1Dt100000E0.8.
print ${rname}
print INIT/Poly.N500.dat
INIT/Poly.N500.dat
read_data ${rname}
read_data INIT/Poly.N500.dat
  orthogonal box = (-50 -50 -50) to (50 50 50)
  1 by 1 by 1 MPI processor grid
  reading atoms ...
  500 atoms
  scanning bonds ...
  1 = max bonds/atom
  scanning angles ...
  1 = max angles/atom
  reading bonds ...
  499 bonds
  reading angles ...
  498 angles
  2 = max # of 1-2 neighbors
  2 = max # of 1-3 neighbors
  4 = max # of 1-4 neighbors
  6 = max # of special neighbors

####################################
####	GROUPS	             #######
####################################
group blue type 1
500 atoms in group blue
group red type 2
0 atoms in group red
group grey type 3
0 atoms in group grey

change_box all x final -60 60 y final -60 60 z final -60 60 boundary f f f units box
  orthogonal box = (-60 -50 -50) to (60 50 50)
  orthogonal box = (-60 -60 -50) to (60 60 50)
  orthogonal box = (-60 -60 -60) to (60 60 60)

####################################
####	ANGLE	             #######
####################################
angle_style   cosine
angle_coeff  1 3.0  #20 sigma for realistic DNA (1 bead = 2.5 nm)

####################################
####	PAIRS	             #######
####################################
pair_style  soft 2.5
pair_modify     shift yes
pair_coeff      * * 20 1.12246152962189

variable prefactor equal ramp(0,50)
fix pushapart all adapt 1 pair soft a * * v_prefactor

####################################
####	FENE	             #######
####################################
bond_style   fene
special_bonds fene#<=== I M P O R T A N T (new command)
  2 = max # of 1-2 neighbors
  6 = max # of special neighbors
bond_coeff   1  30.0   1.6  1.0  1.0

####################################
####	FIXES	             #######
####################################
fix 1 all   nve
fix 2 all  langevin   1.0 1.0   1.0   ${seed}
fix 2 all  langevin   1.0 1.0   1.0   596

####################################
####	WALL	             #######
####################################
fix WALL all wall/lj126 xhi EDGE 1.0 1.0 1.122462048 xlo EDGE 1.0 1.0 1.122462048 yhi EDGE 1.0 1.0 1.122462048 ylo EDGE 1.0 1.0 1.122462048 zhi EDGE 1.0 1.0 1.122462048 zlo EDGE 1.0 1.0 1.122462048 units box

####################################
####	RESET TIME             #######
####################################
reset_timestep 0

####################################
####	SWAP - ATOMS         #######
####################################
##HERE I USE fix atom/swap to attempt an atom swap between types
## In theory, I don't need to do a loop as the fix does it every
## N timesteps
##FIRST Dt IS NOT SWAPPING ANYWAY!
group Polymer type 1 2 3
500 atoms in group Polymer
fix Aswap Polymer atom/swap ${Dt} ${N} ${seed} ${Temp} semi-grand yes types 1 2 3 mu 0.0 0.0 0.0
fix Aswap Polymer atom/swap 100000 ${N} ${seed} ${Temp} semi-grand yes types 1 2 3 mu 0.0 0.0 0.0
fix Aswap Polymer atom/swap 100000 500 ${seed} ${Temp} semi-grand yes types 1 2 3 mu 0.0 0.0 0.0
fix Aswap Polymer atom/swap 100000 500 596 ${Temp} semi-grand yes types 1 2 3 mu 0.0 0.0 0.0
fix Aswap Polymer atom/swap 100000 500 596 1 semi-grand yes types 1 2 3 mu 0.0 0.0 0.0
variable Swaps equal f_Aswap[2]/1.0
variable Attempts equal f_Aswap[1]/1.0

####################################
####    THERMO AND INTEGRATION
####################################
timestep 0.01
thermo 10000
thermo_style   custom   step  temp  epair vol cpu v_Attempts v_Swaps

####################################
####	EQUILIBRATION        #######
####################################
#THIS IS TO TEST
#PUT LARGER NUMBER WHEN DOING ACTUAL SIMULATIONS
run 100000
Neighbor list info ...
  update every 5 steps, delay 5 steps, check yes
  max neighbors/atom: 2000, page size: 100000
  master list distance cutoff = 2.42246
  ghost atom cutoff = 2.42246
  binsize = 1.21123, bins = 100 100 100
  1 neighbor lists, perpetual/occasional/extra = 1 0 0
  (1) pair soft, perpetual
      attributes: half, newton on
      pair build: half/bin/newton
      stencil: half/bin/3d/newton
      bin: standard
Per MPI rank memory allocation (min/avg/max) = 9.234 | 9.234 | 9.234 Mbytes
Step Temp E_pair Volume CPU v_Attempts v_Swaps 
       0            0            0      1728000            0            0            0 
   10000    1.0075279 0.0074957802      1728000     1.125845          500          500 
   20000   0.97835886 0.0014558006      1728000     2.072875          500          500 
   30000    0.9844545 0.0021886883      1728000    2.9619651          500          500 
   40000   0.99181036 8.8566205e-05      1728000    3.8380651          500          500 
   50000   0.96849138  0.013001938      1728000    4.6852431          500          500 
   60000    1.0065555 0.00024033641      1728000    5.5271981          500          500 
   70000    0.9495637  0.010345973      1728000    6.3660221          500          500 
   80000   0.97425243 0.0018512064      1728000     7.202029          500          500 
   90000    1.0509142 0.0035049328      1728000    8.0267141          500          500 
  100000    1.0015061 0.0014080054      1728000    8.8511691          500          500 
Loop time of 8.85315 on 1 procs for 100000 steps with 500 atoms

Performance: 9759237.043 tau/day, 11295.413 timesteps/s
99.2% CPU use with 1 MPI tasks x 1 OpenMP threads

MPI task timing breakdown:
Section |  min time  |  avg time  |  max time  |%varavg| %total
---------------------------------------------------------------
Pair    | 0.61199    | 0.61199    | 0.61199    |   0.0 |  6.91
Bond    | 2.5591     | 2.5591     | 2.5591     |   0.0 | 28.91
Neigh   | 2.5594     | 2.5594     | 2.5594     |   0.0 | 28.91
Comm    | 0.12292    | 0.12292    | 0.12292    |   0.0 |  1.39
Output  | 0.017951   | 0.017951   | 0.017951   |   0.0 |  0.20
Modify  | 2.8829     | 2.8829     | 2.8829     |   0.0 | 32.56
Other   |            | 0.09888    |            |       |  1.12

Nlocal:    500 ave 500 max 500 min
Histogram: 1 0 0 0 0 0 0 0 0 0
Nghost:    0 ave 0 max 0 min
Histogram: 1 0 0 0 0 0 0 0 0 0
Neighs:    868 ave 868 max 868 min
Histogram: 1 0 0 0 0 0 0 0 0 0

Total # of neighbors = 868
Ave neighs/atom = 1.736
Ave special neighs/atom = 1.996
Neighbor list builds = 4478
Dangerous builds = 0


unfix pushapart
unfix Aswap
reset_timestep 0

#######################################################
####	PAIRS -- REPULSIVE + REDS FERROMAGN 	#######
#######################################################
#ENERGYSCALE
variable Et equal ${E}/${Norm}
variable Et equal 0.8/${Norm}
variable Et equal 0.8/0.88585294441338

pair_style  lj/cut 1.8
pair_modify     shift yes
pair_coeff      * *  1.0 1.0 1.12246152962189

pair_coeff      1 1  ${Et} 1.0 1.8
pair_coeff      1 1  0.903084428454169 1.0 1.8
pair_coeff      1 2  1.0 1.0 1.12246152962189
pair_coeff      1 3  1.0 1.0 1.12246152962189

pair_coeff      2 2  ${Et} 1.0 1.8
pair_coeff      2 2  0.903084428454169 1.0 1.8
pair_coeff      2 3  1.0 1.0 1.12246152962189

pair_coeff      3 3  1.0 1.0 1.12246152962189
#######################################################


########################
## PER PRIMI VICINI   ##
########################
bond_style harmonic
special_bonds lj 1 1 1
  2 = max # of 1-2 neighbors
  2 = max # of 1-3 neighbors
  4 = max # of 1-4 neighbors
  6 = max # of special neighbors
bond_coeff 1 200 1.12246
#bond_style fene
#special_bonds fene
#bond_coeff 1 30 1.6 1.0 1.0

########################
## RECOLOR #############
########################
group Polymer type 1 2 3
500 atoms in group Polymer
variable smooth equal 10
variable dtsmooth equal ${Dt}/${smooth}
variable dtsmooth equal 100000/${smooth}
variable dtsmooth equal 100000/10
variable Nsmooth equal ${N}/${smooth}
variable Nsmooth equal 500/${smooth}
variable Nsmooth equal 500/10
fix Aswap Polymer atom/swap ${dtsmooth} ${Nsmooth} ${seedr} ${Temp} semi-grand yes types 1 2 3 mu 0.0 0.0 0.0
fix Aswap Polymer atom/swap 10000 ${Nsmooth} ${seedr} ${Temp} semi-grand yes types 1 2 3 mu 0.0 0.0 0.0
fix Aswap Polymer atom/swap 10000 50 ${seedr} ${Temp} semi-grand yes types 1 2 3 mu 0.0 0.0 0.0
fix Aswap Polymer atom/swap 10000 50 220 ${Temp} semi-grand yes types 1 2 3 mu 0.0 0.0 0.0
fix Aswap Polymer atom/swap 10000 50 220 1 semi-grand yes types 1 2 3 mu 0.0 0.0 0.0
variable Swaps equal f_Aswap[2]/1.0
variable Attempts equal f_Aswap[1]/1.0

####################################
####    DUMPS                 #######
####################################
##VMD
#dump 1 all custom 1000 ${folder}/${simname}.lammpstrj id mol type x y z
#dump_modify  1   format "%d %d %d %.5f %.5f %.5f"

##DAT
dump 2 all custom 100000 ${folder}/${simname}.* id type x y z ix iy iz
dump 2 all custom 100000 RW_Dt100000_E0.8/${simname}.* id type x y z ix iy iz
dump 2 all custom 100000 RW_Dt100000_E0.8/Poly.N500.RW1Dt100000E0.8.* id type x y z ix iy iz
#dump_modify   2   format "%d %d %.5f %.5f %.5f %d %d %d"

##CFG
#dump 3 all cfg 1000 ${folder}/CFG/${simname}.tot.*.cfg mass type xs ys zs id mol type
#dump_modify 3 element N C O Ca Xe

##XYZ
dump 4 all xyz 100000 XYZ_${simname}.xyz
dump 4 all xyz 100000 XYZ_Poly.N500.RW1Dt100000E0.8.xyz
dump_modify 4 element C O N Xe

###########################
thermo 10000
thermo_style   custom   step  temp  epair vol cpu v_Attempts v_Swaps
run 50000000
Neighbor list info ...
  update every 5 steps, delay 5 steps, check yes
  max neighbors/atom: 2000, page size: 100000
  master list distance cutoff = 3.1
  ghost atom cutoff = 3.1
  binsize = 1.55, bins = 78 78 78
  1 neighbor lists, perpetual/occasional/extra = 1 0 0
  (1) pair lj/cut, perpetual
      attributes: half, newton on
      pair build: half/bin/newton
      stencil: half/bin/3d/newton
      bin: standard
Per MPI rank memory allocation (min/avg/max) = 9.566 | 9.566 | 9.566 Mbytes
Step Temp E_pair Volume CPU v_Attempts v_Swaps 
       0    1.0015061    1.8659569      1728000            0            0            0 
   10000   0.99624702   -0.2418809      1728000   0.82091784           50           37 
   20000    1.0124011  -0.26835902      1728000     1.650913          100           70 
   30000   0.99635752   -0.2520263      1728000    2.4836209          150           99 
   40000   0.99052831  -0.27285539      1728000     3.321003          200          132 
   50000   0.98976761  -0.31451017      1728000    4.1465869          250          171 
   60000     1.012287  -0.32196751      1728000    4.9648459          300          202 
   70000   0.94109463  -0.31528016      1728000    5.7857759          350          228 
   80000    1.0265957  -0.33111564      1728000    6.6099739          400          260 
   90000    1.0006848  -0.30775396      1728000    7.4669919          450          291 
  100000    1.0413584  -0.31334776      1728000     8.313859          500          320 
  110000    1.0270638  -0.34569385      1728000    9.1459038          550          356 
  120000     1.049294   -0.3800908      1728000     9.982841          600          382 
  130000   0.96179368  -0.36289715      1728000    10.829966          650          410 
  140000   0.96821036  -0.37506602      1728000    11.665023          700          449 
  150000    1.0349688  -0.33982875      1728000    12.491887          750          474 
  160000    1.0495631   -0.3449126      1728000    13.316949          800          503 
  170000    1.0493964  -0.37745933      1728000    14.165931          850          533 
  180000    1.0186981  -0.35585049      1728000    15.020916          900          566 
  190000    1.0177648  -0.34414867      1728000    15.876686          950          596 
  200000   0.98581259  -0.38011272      1728000    16.755992         1000          630 
  210000   0.91985317  -0.40636148      1728000    17.614665         1050          659 
  220000   0.99614832  -0.39293677      1728000    18.458093         1100          694 
  230000    1.0139432  -0.39285772      1728000    19.292096         1150          719 
  240000    1.0443801  -0.35726754      1728000    20.118021         1200          755 
  250000   0.99127526  -0.35295941      1728000     20.96003         1250          785 
  260000   0.99164179  -0.34421416      1728000    21.827091         1300          812 
  270000    1.0651779  -0.36734783      1728000    22.652826         1350          846 
  280000    1.0353001  -0.35526711      1728000    23.508375         1400          878 
  290000   0.96329136  -0.37904817      1728000    24.333743         1450          911 
  300000   0.99731902  -0.38024408      1728000    25.206925         1500          941 
  310000    1.0200489  -0.38924953      1728000    26.034154         1550          973 
  320000   0.99149609  -0.37070223      1728000    26.860416         1600         1003 
  330000    1.0945664  -0.36470398      1728000    27.682873         1650         1031 
  340000    1.0159684  -0.37167531      1728000     28.50621         1700         1061 
  350000   0.98752224  -0.35663056      1728000    29.321467         1750         1088 
  360000    1.0002309  -0.34913456      1728000    30.146678         1800         1116 
  370000    1.0989483  -0.35101843      1728000    30.972049         1850         1147 
  380000    0.9871204  -0.35513482      1728000    31.795287         1900         1186 
  390000   0.98328408  -0.36578442      1728000    32.627438         1950         1213 
  400000     0.986834  -0.38364534      1728000    33.478586         2000         1239 
  410000   0.99127222  -0.37839185      1728000    34.311782         2050         1272 
  420000    1.0318897  -0.39387361      1728000    35.129029         2100         1304 
  430000    0.9159772  -0.40343429      1728000    35.978254         2150         1331 
  440000   0.98048096  -0.40400167      1728000    36.815084         2200         1355 
  450000     1.032459  -0.38980816      1728000    37.676147         2250         1388 
  460000   0.98346672  -0.37120669      1728000    38.492644         2300         1423 
  470000    1.0596648  -0.39969961      1728000    39.324636         2350         1455 
  480000    1.0446189  -0.40078402      1728000    40.181955         2400         1482 
  490000   0.96182586  -0.40870622      1728000    41.027078         2450         1521 
  500000    1.0297502  -0.37869841      1728000    41.866035         2500         1554 
  510000   0.98830604   -0.3939616      1728000    42.685975         2550         1588 
  520000    1.0035831  -0.40958939      1728000    43.530046         2600         1619 
  530000    1.0053615  -0.41108491      1728000    44.402851         2650         1648 
  540000    1.0146229  -0.42544668      1728000    45.281149         2700         1683 
  550000    1.0174844  -0.40992838      1728000    46.127752         2750         1709 
  560000   0.99785128  -0.39024611      1728000    47.020903         2800         1737 
  570000    1.0879179   -0.3627429      1728000    47.856168         2850         1766 
  580000   0.96006914  -0.38049351      1728000    48.706235         2900         1801 
  590000     1.005494  -0.35292371      1728000    49.567353         2950         1833 
  600000    1.0670711  -0.35869248      1728000    50.426473         3000         1861 
  610000   0.98842294  -0.33700093      1728000    51.285587         3050         1895 
  620000    1.0517962   -0.3315935      1728000    52.143706         3100         1929 
  630000    1.0427956  -0.35952057      1728000    52.989935         3150         1960 
  640000   0.99450982  -0.34594209      1728000    53.839059         3200         1985 
  650000   0.98190034  -0.35296308      1728000    54.699186         3250         2020 
  660000   0.98371792  -0.35610766      1728000    55.593261         3300         2047 
  670000    1.0557315   -0.3861799      1728000    56.463395         3350         2082 
  680000      1.01756  -0.33879133      1728000    57.360454         3400         2120 
  690000   0.99491327   -0.3225097      1728000    58.199622         3450         2153 
  700000     1.045483  -0.32760468      1728000     59.11069         3500         2186 
  710000    1.0201338  -0.32947771      1728000    59.959821         3550         2220 
  720000    1.0027256  -0.35638919      1728000    60.814943         3600         2257 
  730000   0.97675882  -0.35226933      1728000     61.67906         3650         2286 
  740000    1.0820611  -0.35277582      1728000    62.506241         3700         2321 
  750000   0.99111435  -0.34618402      1728000    63.348838         3750         2350 
  760000   0.94610048  -0.36402395      1728000     64.16169         3800         2385 
  770000   0.98490353  -0.35937013      1728000    65.007846         3850         2416 
  780000    1.0340253   -0.3503848      1728000    65.830987         3900         2448 
  790000   0.99472608  -0.35823326      1728000    66.677451         3950         2474 
  800000    1.0265548  -0.34964955      1728000     67.53067         4000         2507 
  810000    1.0533232  -0.32590798      1728000    68.379805         4050         2538 
  820000   0.99049542  -0.34104948      1728000    69.270896         4100         2574 
  830000    1.0012683  -0.36698679      1728000     70.16498         4150         2608 
  840000   0.99348609  -0.35041917      1728000    71.009061         4200         2635 
  850000   0.99815763  -0.34050886      1728000     71.82664         4250         2667 
  860000   0.98418821  -0.35083215      1728000    72.641916         4300         2696 
  870000    1.0671396  -0.33582652      1728000    73.457074         4350         2723 
  880000     1.078392  -0.34488215      1728000     74.27889         4400         2757 
  890000   0.99798358  -0.35965067      1728000     75.10615         4450         2788 
  900000   0.91449471  -0.34207035      1728000    75.931411         4500         2819 
  910000    1.0639394  -0.34692803      1728000    76.748713         4550         2848 
  920000   0.92880996  -0.33856822      1728000    77.561651         4600         2877 
  930000   0.98825387  -0.34783042      1728000    78.383927         4650         2908 
  940000   0.98419863  -0.35753831      1728000    79.215294         4700         2939 
  950000    1.0972141  -0.35654095      1728000    80.040114         4750         2973 
  960000   0.98246217  -0.33108759      1728000    80.916269         4800         3005 
  970000   0.94480282  -0.33268477      1728000    81.747503         4850         3037 
  980000    1.0476147  -0.35103803      1728000    82.575821         4900         3065 
  990000    1.0608428  -0.33803945      1728000    83.385011         4950         3100 
 1000000    1.0363706   -0.3473455      1728000    84.214272         5000         3130 
 1010000   0.96800669  -0.35371965      1728000    85.060472         5050         3165 
 1020000    0.9949496  -0.34251554      1728000    85.890232         5100         3194 
 1030000   0.97995529  -0.37764551      1728000    86.710393         5150         3219 
 1040000    1.0036113  -0.36947943      1728000    87.535557         5200         3245 
 1050000    0.9589233  -0.35896307      1728000    88.383701         5250         3269 
 1060000     1.010739  -0.36199844      1728000    89.225598         5300         3300 
 1070000   0.97498414  -0.33146333      1728000    90.045127         5350         3330 
 1080000     1.010042   -0.3434203      1728000    90.852712         5400         3363 
 1090000   0.98402771  -0.34662665      1728000    91.674881         5450         3390 
 1100000    1.0509117  -0.33118785      1728000    92.498097         5500         3416 
 1110000    1.0056673  -0.33298182      1728000    93.308305         5550         3447 
 1120000   0.95653905  -0.33637038      1728000    94.114469         5600         3480 
 1130000    1.0768393  -0.32669569      1728000    94.990583         5650         3504 
 1140000    1.0226068  -0.34819808      1728000    95.814476         5700         3539 
 1150000    1.0259267  -0.35577965      1728000    96.631643         5750         3572 
 1160000    1.0196492  -0.36690117      1728000     97.44086         5800         3599 
 1170000   0.92735519  -0.35203433      1728000     98.23985         5850         3629 
 1180000    1.0299085  -0.38315382      1728000    99.074016         5900         3658 
 1190000    1.0812607  -0.37213346      1728000    99.890871         5950         3689 
 1200000   0.99830258  -0.37808003      1728000    100.72751         6000         3717 
 1210000    1.0444934  -0.38628396      1728000    101.54272         6050         3745 
 1220000    1.0158664   -0.3524107      1728000    102.38594         6100         3775 
 1230000    1.0335449  -0.34066537      1728000    103.19312         6150         3810 
 1240000    1.0513516  -0.34275733      1728000    104.00126         6200         3843 
 1250000    1.0148607  -0.33274901      1728000    104.83158         6250         3870 
 1260000    1.0400583  -0.32476945      1728000    105.65682         6300         3908 
 1270000    1.0747503    -0.323098      1728000    106.48929         6350         3930 
 1280000    1.0134691  -0.33273701      1728000    107.30945         6400         3963 
 1290000    1.0010635  -0.35496808      1728000    108.12597         6450         4001 
 1300000   0.98653779  -0.34429523      1728000    108.99015         6500         4034 
 1310000    1.0282435  -0.34042623      1728000    109.79653         6550         4069 
 1320000   0.98444643   -0.3310933      1728000    110.59983         6600         4098 
 1330000    1.0243519    -0.335361      1728000    111.41603         6650         4132 
 1340000    1.0562415  -0.34327528      1728000    112.27877         6700         4162 
 1350000      0.94952  -0.35590426      1728000    113.09996         6750         4195 
 1360000     1.017088  -0.35533347      1728000    113.93514         6800         4222 
 1370000    1.0299184  -0.34084601      1728000     114.7503         6850         4254 
 1380000   0.93776673  -0.35543557      1728000    115.55454         6900         4284 
 1390000   0.99200854  -0.32737285      1728000    116.39969         6950         4311 
 1400000   0.93340308  -0.32180297      1728000     117.2259         7000         4337 
 1410000    1.0496997  -0.31597591      1728000    118.04813         7050         4360 
 1420000    1.0523629  -0.33298278      1728000    118.86249         7100         4385 
 1430000   0.97572072   -0.3531039      1728000    119.71372         7150         4418 
 1440000    1.0680714  -0.33092199      1728000    120.61989         7200         4450 
 1450000    1.0167467  -0.37384756      1728000    121.44555         7250         4485 
 1460000    1.0304884  -0.37473276      1728000    122.26773         7300         4516 
 1470000     1.083572  -0.37982227      1728000    123.09008         7350         4544 
 1480000    1.0184408  -0.36431032      1728000    123.90733         7400         4575 
 1490000   0.96301438  -0.36924584      1728000    124.71672         7450         4603 
 1500000    1.0360075  -0.35680999      1728000    125.54245         7500         4634 
 1510000   0.97476181  -0.35837668      1728000    126.36659         7550         4667 
 1520000   0.97845972  -0.37315251      1728000     127.1818         7600         4701 
 1530000   0.99060803  -0.37223104      1728000    128.00447         7650         4725 
 1540000    1.0170952  -0.36482369      1728000    128.82075         7700         4752 
 1550000    1.0824638   -0.3683637      1728000    129.64804         7750         4781 
 1560000   0.95295627  -0.37087226      1728000    130.47826         7800         4817 
 1570000     1.060357  -0.36334298      1728000    131.33738         7850         4853 
 1580000    1.0570299  -0.35876916      1728000    132.16661         7900         4882 
 1590000   0.91943992  -0.37026234      1728000    132.97978         7950         4917 
 1600000     1.083823  -0.34571198      1728000     133.8096         8000         4942 
 1610000    1.0341538  -0.36221972      1728000    134.61447         8050         4978 
 1620000   0.93821031  -0.38985582      1728000    135.43932         8100         5006 
 1630000    1.0350366  -0.37847417      1728000     136.2576         8150         5036 
 1640000   0.99024649  -0.36535572      1728000    137.10046         8200         5074 
 1650000    1.0007058  -0.35855117      1728000    137.91968         8250         5106 
 1660000    1.0016757  -0.36490902      1728000    138.72756         8300         5134 
 1670000   0.95295252  -0.37788779      1728000    139.54139         8350         5171 
 1680000    1.0479061  -0.35629602      1728000    140.36753         8400         5208 
 1690000    1.0950741   -0.3625862      1728000    141.20428         8450         5243 
 1700000    1.0087348  -0.34887747      1728000    142.04153         8500         5271 
 1710000   0.97822308   -0.3597862      1728000    142.86469         8550         5298 
 1720000   0.96458757  -0.33318902      1728000    143.68292         8600         5329 
 1730000   0.94775255  -0.32836482      1728000    144.49815         8650         5360 
 1740000   0.97170663  -0.32853174      1728000    145.31241         8700         5389 
 1750000   0.97367166  -0.33626675      1728000    146.13242         8750         5420 
 1760000    1.0619014  -0.35123565      1728000    146.95171         8800         5451 
 1770000     1.019924  -0.36605182      1728000    147.76484         8850         5486 
 1780000    1.0419871  -0.33181419      1728000     148.5958         8900         5514 
 1790000    1.0523459  -0.32352391      1728000    149.42066         8950         5552 
 1800000   0.99161157  -0.32834795      1728000    150.25077         9000         5588 
 1810000   0.98004474  -0.32853122      1728000    151.12989         9050         5620 
 1820000    1.0290618  -0.34950342      1728000    151.98794         9100         5652 
 1830000   0.98960435  -0.32141375      1728000    152.80983         9150         5682 
 1840000   0.99787898  -0.30780209      1728000     153.6484         9200         5715 
 1850000    1.0336552  -0.31622718      1728000    154.48169         9250         5748 
 1860000   0.95549549  -0.30532355      1728000     155.2849         9300         5776 
 1870000    1.0295371  -0.30169691      1728000    156.11907         9350         5806 
 1880000   0.98848275  -0.29436068      1728000    156.93125         9400         5835 
 1890000    1.0435241  -0.32705612      1728000    157.75046         9450         5871 
 1900000   0.99525367  -0.31143506      1728000     158.5717         9500         5907 
 1910000   0.97630143  -0.31586498      1728000    159.40985         9550         5936 
 1920000    1.0304718  -0.33444383      1728000    160.22506         9600         5964 
 1930000    1.0009039  -0.32412488      1728000     161.0456         9650         5992 
 1940000    1.0415112  -0.31398078      1728000    161.87178         9700         6021 
 1950000   0.96662768  -0.33870654      1728000    162.68396         9750         6053 
 1960000    1.0174758   -0.3063764      1728000     163.4883         9800         6083 
 1970000    1.0192371  -0.32689108      1728000    164.30863         9850         6114 
 1980000    1.0506676  -0.32336253      1728000    165.13488         9900         6154 
 1990000   0.99493756  -0.31857683      1728000    165.94417         9950         6188 
 2000000    1.0468923  -0.31040449      1728000    166.78291        10000         6215 
 2010000    1.0322399  -0.33727444      1728000    167.59415        10050         6250 
 2020000    1.0337755  -0.35656963      1728000    168.42088        10100         6279 
 2030000    1.0433927  -0.35897801      1728000    169.26601        10150         6314 
 2040000    1.0867036  -0.36533388      1728000    170.12313        10200         6349 
 2050000    1.0305074   -0.3746217      1728000    170.95329        10250         6378 
 2060000     1.014313  -0.39422462      1728000    171.83339        10300         6406 
 2070000    1.0404319   -0.4032494      1728000    172.69653        10350         6434 
 2080000    1.0201321   -0.3871487      1728000    173.52954        10400         6466 
 2090000   0.97076476  -0.37983314      1728000    174.36468        10450         6496 
 2100000    1.0441053  -0.35292304      1728000    175.21284        10500         6527 
 2110000   0.99788245  -0.36471697      1728000    176.04104        10550         6555 
 2120000    1.0190035  -0.37264381      1728000    176.88325        10600         6582 
 2130000    1.0119522  -0.38140879      1728000    177.72338        10650         6613 
 2140000    1.0180265  -0.36090498      1728000    178.54857        10700         6639 
 2150000    1.0362734  -0.36746046      1728000    179.36778        10750         6666 
 2160000   0.91406632  -0.35935642      1728000    180.18894        10800         6697 
 2170000     1.051768  -0.35795867      1728000    181.00417        10850         6723 
 2180000    1.0361393  -0.37863079      1728000    181.87127        10900         6746 
 2190000   0.98475982  -0.35625608      1728000    182.71933        10950         6775 
 2200000    0.9598451  -0.36259604      1728000    183.53255        11000         6807 
 2210000    1.0308126  -0.34593609      1728000    184.37377        11050         6838 
 2220000     1.020216  -0.35017904      1728000    185.19646        11100         6869 
 2230000    1.0519782  -0.35809901      1728000    186.01267        11150         6903 
 2240000    1.0828637  -0.35528439      1728000    186.89431        11200         6931 
 2250000   0.97534618  -0.35054467      1728000    187.72853        11250         6965 
 2260000    1.0493148  -0.34086188      1728000    188.53581        11300         6998 
 2270000    1.0005544  -0.33193724      1728000    189.36794        11350         7032 
 2280000    1.0193852  -0.33579735      1728000    190.19197        11400         7068 
 2290000   0.98460376  -0.30668076      1728000     191.0082        11450         7098 
 2300000   0.99143235  -0.30993444      1728000    191.83541        11500         7136 
 2310000    1.0420607  -0.30504787      1728000    192.72051        11550         7173 
 2320000     1.069639  -0.29772333      1728000    193.54675        11600         7202 
 2330000   0.98758028  -0.31164636      1728000    194.36508        11650         7235 
 2340000    1.0123125  -0.31738195      1728000    195.17847        11700         7273 
 2350000    1.0009243  -0.29575552      1728000    195.99005        11750         7300 
 2360000   0.97194827  -0.29410847      1728000    196.80531        11800         7329 
 2370000    1.0216594  -0.27617111      1728000    197.61149        11850         7368 
 2380000    0.9755827  -0.29279235      1728000    198.47459        11900         7400 
 2390000    1.0261087  -0.29022602      1728000    199.29476        11950         7437 
 2400000    1.0802768  -0.28442455      1728000    200.12857        12000         7469 
 2410000    1.0206232  -0.28589708      1728000     200.9338        12050         7504 
 2420000   0.99809255  -0.30606359      1728000    201.74316        12100         7542 
 2430000   0.95357714  -0.31627749      1728000    202.54855        12150         7581 
 2440000     1.043392  -0.30689746      1728000    203.35091        12200         7617 
 2450000   0.93315749  -0.33709369      1728000    204.16426        12250         7650 
 2460000    1.0489231  -0.34376914      1728000     204.9803        12300         7679 
 2470000   0.99155128  -0.33906873      1728000    205.79662        12350         7716 
 2480000   0.99988582  -0.33873943      1728000    206.62137        12400         7750 
 2490000    1.0751533  -0.36203212      1728000     207.4352        12450         7772 
 2500000    1.0299235   -0.3408527      1728000    208.24844        12500         7809 
 2510000    1.0110417  -0.34721556      1728000    209.06257        12550         7841 
 2520000    1.0222606  -0.33014949      1728000    209.86549        12600         7868 
 2530000   0.97884731  -0.33255804      1728000    210.67068        12650         7899 
 2540000   0.99391688   -0.3464213      1728000    211.48672        12700         7933 
 2550000   0.97230275  -0.36578747      1728000    212.33467        12750         7965 
 2560000   0.92049828  -0.37385081      1728000     213.1526        12800         7994 
 2570000   0.98706849  -0.36120661      1728000    213.96658        12850         8028 
 2580000    1.0853651  -0.36260461      1728000    214.77062        12900         8058 
 2590000   0.95158388  -0.38161239      1728000    215.57973        12950         8084 
 2600000    1.0611986  -0.39270226      1728000    216.40974        13000         8109 
 2610000   0.96663847   -0.3700067      1728000    217.23454        13050         8146 
 2620000    0.9625762   -0.3743279      1728000    218.07836        13100         8175 
 2630000   0.95907544  -0.36319022      1728000     218.9277        13150         8206 
 2640000    1.0173155  -0.34152144      1728000    219.78181        13200         8238 
 2650000    1.0190947  -0.33889865      1728000    220.60664        13250         8270 
 2660000    1.0367933  -0.37051725      1728000    221.45363        13300         8303 
 2670000   0.92144924   -0.3610779      1728000    222.32472        13350         8332 
 2680000    1.0478226  -0.37465442      1728000    223.16986        13400         8363 
 2690000   0.97835342  -0.38339675      1728000    224.00808        13450         8389 
 2700000   0.97824985  -0.39181762      1728000    224.85158        13500         8423 
 2710000   0.97850594  -0.37283979      1728000    225.68273        13550         8456 
 2720000    1.0169662  -0.37278011      1728000    226.52287        13600         8489 
 2730000   0.98813227  -0.37866879      1728000    227.34414        13650         8523 
 2740000    0.9962138  -0.37856348      1728000    228.17244        13700         8562 
 2750000    1.0251761  -0.36850595      1728000    229.00367        13750         8597 
 2760000    1.0393472  -0.38305403      1728000    229.86867        13800         8629 
 2770000     1.031684  -0.38167546      1728000    230.70588        13850         8662 
 2780000    1.0155126  -0.36459368      1728000    231.56503        13900         8693 
 2790000    0.9662313  -0.35790933      1728000    232.39369        13950         8726 
 2800000    1.0007893  -0.40976162      1728000    233.22551        14000         8757 
 2810000    1.0534932  -0.34490278      1728000    234.06968        14050         8794 
 2820000     1.035881  -0.32840157      1728000    234.91649        14100         8825 
 2830000     1.038069  -0.37206166      1728000    235.75563        14150         8853 
 2840000   0.96266353  -0.36351821      1728000     236.5818        14200         8879 
 2850000    1.0338456  -0.37117276      1728000    237.41098        14250         8910 
 2860000    1.0138596  -0.38556232      1728000    238.25509        14300         8933 
 2870000   0.98598674  -0.39923891      1728000    239.10523        14350         8959 
 2880000    0.9764043  -0.40363132      1728000    240.00138        14400         8996 
 2890000   0.98470054   -0.4045778      1728000    240.83558        14450         9026 
 2900000    0.9895191   -0.3887044      1728000    241.69069        14500         9056 
 2910000   0.93576228  -0.39302015      1728000    242.55581        14550         9087 
 2920000    1.0564399  -0.43203636      1728000    243.40498        14600         9110 
 2930000    1.0033516  -0.39382642      1728000    244.24512        14650         9140 
 2940000    0.9359091  -0.38594624      1728000    245.08127        14700         9176 
 2950000    1.0170469  -0.38289691      1728000    245.90663        14750         9213 
 2960000    1.0718524  -0.36921537      1728000    246.73692        14800         9242 
 2970000    1.0108331  -0.38460501      1728000    247.56705        14850         9271 
 2980000   0.98725993  -0.36909995      1728000    248.40329        14900         9297 
 2990000   0.96914166  -0.36934999      1728000    249.25743        14950         9327 
 3000000   0.95799934  -0.36160392      1728000    250.09814        15000         9358 
 3010000    1.0417192  -0.36547948      1728000    250.95826        15050         9385 
 3020000    1.0375546  -0.36375218      1728000    251.79746        15100         9416 
 3030000    1.0229178  -0.35390182      1728000    252.62064        15150         9451 
 3040000   0.99031558  -0.35266896      1728000    253.43438        15200         9484 
 3050000    1.0346202  -0.35435135      1728000    254.25161        15250         9520 
 3060000    1.0261035  -0.34637382      1728000    255.06892        15300         9556 
 3070000    1.0312176   -0.3460361      1728000    255.90023        15350         9589 
 3080000    1.0620703  -0.34942058      1728000    256.71642        15400         9624 
 3090000    1.0040768    -0.355031      1728000    257.53815        15450         9650 
 3100000    1.0403455  -0.34281534      1728000    258.41734        15500         9674 
 3110000   0.96868714  -0.33406205      1728000    259.24368        15550         9704 
 3120000   0.97144904   -0.3459026      1728000    260.06076        15600         9732 
 3130000   0.98970419  -0.35294912      1728000    260.87502        15650         9762 
 3140000    1.0239175  -0.36292331      1728000    261.68779        15700         9793 
 3150000   0.97078101    -0.381017      1728000    262.51219        15750         9831 
 3160000    0.9959302  -0.35852321      1728000    263.34137        15800         9858 
 3170000    1.0648944   -0.3810027      1728000    264.15564        15850         9879 
 3180000    1.0494527  -0.36410042      1728000     264.9838        15900         9910 
 3190000     1.061545  -0.36571845      1728000    265.85791        15950         9936 
 3200000   0.99145227  -0.36146388      1728000    266.73802        16000         9966 
 3210000    1.0451576   -0.3450573      1728000    267.62711        16050         9995 
 3220000   0.96793707  -0.32442574      1728000    268.44026        16100        10027 
 3230000    1.0299208  -0.33000513      1728000    269.26056        16150        10060 
 3240000   0.93391018  -0.32179058      1728000    270.06575        16200        10097 
 3250000   0.98414826  -0.30783089      1728000    270.93067        16250        10130 
 3260000    0.9855128  -0.31042712      1728000    271.76489        16300        10162 
 3270000    1.0215079  -0.30608033      1728000    272.64599        16350        10191 
 3280000   0.99616305  -0.30280415      1728000    273.51611        16400        10220 
 3290000    1.0005321   -0.2904467      1728000    274.37824        16450        10249 
 3300000   0.98897211   -0.2878604      1728000    275.19446        16500        10281 
 3310000   0.96840029  -0.27697222      1728000    276.01166        16550        10315 
 3320000   0.98953529  -0.26692862      1728000    276.83587        16600        10351 
 3330000    1.0083425  -0.27728244      1728000     277.6631        16650        10386 
 3340000   0.94518642   -0.2857002      1728000    278.47525        16700        10421 
 3350000    1.0306236  -0.30316836      1728000    279.28146        16750        10455 
 3360000    1.0237312  -0.29060307      1728000    280.07964        16800        10492 
 3370000   0.99811131  -0.31149033      1728000    280.89794        16850        10522 
 3380000   0.99273428  -0.30155845      1728000    281.71004        16900        10559 
 3390000   0.96385346  -0.31280401      1728000    282.50841        16950        10588 
 3400000    1.0176614  -0.29585583      1728000    283.32061        17000        10618 
 3410000    1.0502536  -0.29612174      1728000    284.12497        17050        10653 
 3420000    1.0351358  -0.30147849      1728000    284.92169        17100        10692 
 3430000    1.0085496  -0.30039303      1728000    285.72487        17150        10724 
 3440000   0.97212751  -0.30290633      1728000    286.52701        17200        10759 
 3450000    1.0261199  -0.28797376      1728000    287.33639        17250        10789 
 3460000    1.0109909  -0.29777394      1728000    288.13958        17300        10822 
 3470000   0.89554358  -0.29848675      1728000    288.95586        17350        10856 
 3480000    1.0256879  -0.29030972      1728000    289.76303        17400        10888 
 3490000    1.0217719  -0.30454364      1728000    290.56631        17450        10921 
 3500000   0.99790827  -0.29706245      1728000    291.38361        17500        10954 
 3510000    1.0489467  -0.31327447      1728000    292.18438        17550        10987 
 3520000   0.94252171  -0.34366049      1728000    292.98762        17600        11017 
 3530000    0.9801912  -0.32457341      1728000    293.78937        17650        11049 
 3540000    1.0223128  -0.32783606      1728000    294.59855        17700        11085 
 3550000   0.98204417  -0.33826484      1728000    295.41176        17750        11117 
 3560000    1.0010481  -0.32638119      1728000    296.22125        17800        11146 
 3570000    0.9388084  -0.35330498      1728000    297.04852        17850        11176 
 3580000    0.9848032  -0.33902387      1728000    297.87067        17900        11205 
 3590000   0.95782425   -0.3389649      1728000    298.68984        17950        11233 
 3600000   0.99765071  -0.34638414      1728000    299.52604        18000        11268 
 3610000    1.0061861  -0.37542049      1728000    300.38015        18050        11301 
 3620000   0.98758543  -0.36846733      1728000    301.22252        18100        11332 
 3630000     1.067135  -0.36087313      1728000    302.03676        18150        11363 
 3640000     1.059585  -0.36786441      1728000    302.85893        18200        11389 
 3650000    1.0008181  -0.37215095      1728000    303.67967        18250        11418 
 3660000    1.0457528  -0.37092604      1728000    304.52885        18300        11452 
 3670000   0.98904045  -0.36953784      1728000    305.34311        18350        11484 
 3680000   0.96840754  -0.37853796      1728000    306.17679        18400        11513 
 3690000     1.019568   -0.3780745      1728000    307.00001        18450        11549 
 3700000   0.96991389  -0.37181776      1728000    307.83619        18500        11583 
 3710000   0.99598285  -0.36102802      1728000    308.67102        18550        11615 
 3720000   0.96964276  -0.37844201      1728000     309.5002        18600        11646 
 3730000    1.0473879  -0.40838017      1728000    310.33536        18650        11674 
 3740000    1.0039872  -0.41027682      1728000    311.16949        18700        11696 
 3750000    1.0214658  -0.38064795      1728000    312.04459        18750        11727 
 3760000   0.97390164  -0.36579716      1728000    312.87875        18800        11761 
 3770000   0.98242136  -0.39274078      1728000    313.74288        18850        11791 
 3780000    1.0007721  -0.39786563      1728000    314.57243        18900        11826 
 3790000    1.0508723  -0.37857771      1728000    315.39871        18950        11855 
 3800000    1.0141266  -0.38980844      1728000    316.23589        19000        11892 
 3810000    1.0628047  -0.37146943      1728000    317.06505        19050        11925 
 3820000    1.0108566  -0.36411328      1728000    317.93615        19100        11953 
 3830000    1.0578078  -0.36082604      1728000    318.79527        19150        11982 
 3840000    1.0006489  -0.38762376      1728000     319.6266        19200        12013 
 3850000   0.91464848   -0.3604942      1728000    320.51168        19250        12043 
 3860000    1.0383786  -0.35247521      1728000    321.35686        19300        12075 
 3870000     1.007787  -0.34153333      1728000    322.21024        19350        12107 
 3880000    1.0393325  -0.32544857      1728000    323.05538        19400        12137 
 3890000    1.0468729  -0.33210646      1728000    323.90253        19450        12164 
 3900000   0.97921614  -0.33815385      1728000    324.73577        19500        12194 
 3910000    1.0108398  -0.34582424      1728000     325.5729        19550        12223 
 3920000    1.0529261  -0.36302309      1728000    326.43502        19600        12252 
 3930000     1.047996  -0.35990177      1728000    327.28115        19650        12279 
 3940000    1.0244948  -0.37288287      1728000    328.12429        19700        12308 
 3950000    1.0681213  -0.35284602      1728000    328.95744        19750        12336 
 3960000    1.0480425  -0.34252807      1728000    329.85052        19800        12366 
 3970000    0.9254376  -0.37207939      1728000    330.70265        19850        12397 
 3980000   0.99121449  -0.34959062      1728000    331.52687        19900        12430 
 3990000    1.0668947  -0.36977787      1728000    332.34662        19950        12455 
 4000000   0.97710425  -0.36225524      1728000    333.17488        20000        12484 
 4010000    1.0798695  -0.37097973      1728000    333.99307        20050        12518 
 4020000    1.0288543  -0.35766189      1728000    334.81221        20100        12552 
 4030000    1.0321106  -0.33577131      1728000    335.63419        20150        12577 
 4040000    1.0581997  -0.33694458      1728000    336.45438        20200        12613 
 4050000   0.99228874  -0.34803973      1728000    337.28155        20250        12646 
 4060000   0.97144031  -0.34840425      1728000    338.20361        20300        12677 
 4070000   0.99047523  -0.31695984      1728000    339.03082        20350        12704 
 4080000   0.94955887  -0.32470016      1728000    339.83716        20400        12735 
 4090000   0.97625938   -0.3372293      1728000    340.66939        20450        12768 
 4100000    1.0225276  -0.34251434      1728000    341.52374        20500        12799 
 4110000    1.0259396  -0.34394212      1728000    342.36892        20550        12832 
 4120000    1.0112436  -0.33724193      1728000    343.20907        20600        12860 
 4130000   0.96217608  -0.32397766      1728000    344.01548        20650        12893 
 4140000    1.0111821  -0.34787063      1728000    344.82365        20700        12929 
 4150000    1.0311735  -0.36841701      1728000    345.66607        20750        12958 
 4160000   0.97566466  -0.34767398      1728000    346.56418        20800        12985 
 4170000    1.0013979  -0.34601163      1728000    347.46328        20850        13017 
 4180000    1.0005487  -0.34850121      1728000    348.30547        20900        13049 
 4190000    1.0108889  -0.35040023      1728000    349.15061        20950        13077 
 4200000    1.0455179  -0.35223656      1728000    349.98281        21000        13104 
 4210000    1.0014958  -0.36808602      1728000    350.79298        21050        13132 
 4220000    1.0836647   -0.3564809      1728000    351.61323        21100        13161 
 4230000   0.98733818  -0.34345734      1728000    352.43454        21150        13191 
 4240000    1.0499651  -0.35087568      1728000    353.24865        21200        13217 
 4250000   0.97049191  -0.34804608      1728000    354.07354        21250        13250 
 4260000    1.0099605  -0.36355172      1728000    354.88037        21300        13280 
 4270000    1.0256485  -0.38316683      1728000    355.69953        21350        13309 
 4280000    1.0156072  -0.37417341      1728000    356.54154        21400        13340 
 4290000    1.0202321  -0.37602872      1728000    357.39223        21450        13361 
 4300000   0.93468363  -0.37661525      1728000    358.24288        21500        13390 
 4310000   0.99308773  -0.36778381      1728000    359.07803        21550        13416 
 4320000    1.1005311  -0.35997449      1728000    359.91525        21600        13446 
 4330000   0.97306678  -0.36408497      1728000    360.74744        21650        13474 
 4340000    1.0223211   -0.3663556      1728000    361.63453        21700        13500 
 4350000   0.93773312  -0.38132743      1728000    362.46076        21750        13530 
 4360000    1.0241996  -0.37754653      1728000    363.29119        21800        13561 
 4370000    0.9898305  -0.38241768      1728000    364.11767        21850        13595 
 4380000   0.95935652  -0.37893848      1728000    364.96522        21900        13615 
 4390000   0.98251747  -0.38118711      1728000    365.83757        21950        13643 
 4400000    1.0442757  -0.38306286      1728000    366.73569        22000        13662 
 4410000    0.9541368  -0.37738208      1728000    367.56112        22050        13690 
 4420000   0.97447133  -0.37825962      1728000    368.40435        22100        13714 
 4430000    1.0412499  -0.37211738      1728000     369.2196        22150        13741 
 4440000        1.024  -0.36457484      1728000    370.04413        22200        13768 
 4450000    1.0284858   -0.3837295      1728000    370.87529        22250        13789 
 4460000    1.0338728   -0.3671239      1728000    371.71849        22300        13821 
 4470000   0.96721189  -0.35310523      1728000    372.56562        22350        13847 
 4480000    1.0227305  -0.36356037      1728000    373.39277        22400        13881 
 4490000   0.99576925  -0.33935699      1728000    374.22992        22450        13913 
 4500000    1.0460961  -0.33359354      1728000    375.10309        22500        13941 
 4510000   0.96708069  -0.35108598      1728000    375.93823        22550        13976 
 4520000    1.0421424  -0.34584565      1728000    376.76241        22600        14009 
 4530000   0.98205834  -0.34381554      1728000    377.59606        22650        14038 
 4540000   0.97594126  -0.34022435      1728000     378.4252        22700        14072 
 4550000    1.0532858  -0.35311495      1728000    379.24742        22750        14103 
 4560000    1.0437126  -0.33543408      1728000    380.08359        22800        14130 
 4570000   0.90930888  -0.36995946      1728000    380.91077        22850        14162 
 4580000    1.0113613    -0.343818      1728000    381.73706        22900        14193 
 4590000   0.99149191  -0.35085139      1728000    382.62616        22950        14219 
 4600000    1.0360315  -0.33780251      1728000    383.46131        23000        14245 
 4610000    1.0353705  -0.36186744      1728000    384.30046        23050        14275 
 4620000   0.97646729  -0.34376435      1728000    385.14359        23100        14306 
 4630000   0.89217238  -0.33429627      1728000    385.95975        23150        14333 
 4640000   0.98177706  -0.35387099      1728000    386.79204        23200        14363 
 4650000   0.97405021  -0.35381185      1728000     387.6171        23250        14394 
 4660000    1.0113443  -0.38346527      1728000    388.45393        23300        14424 
 4670000   0.99709781  -0.34763479      1728000    389.30506        23350        14453 
 4680000    1.0973485  -0.36398502      1728000    390.13921        23400        14488 
 4690000   0.88228042  -0.37037447      1728000    390.95573        23450        14520 
 4700000    1.0209051  -0.34736748      1728000    391.79303        23500        14549 
 4710000    1.0142322  -0.35451319      1728000    392.61018        23550        14573 
 4720000    1.0334059  -0.35005625      1728000    393.43741        23600        14602 
 4730000   0.98885343  -0.32364885      1728000    394.24715        23650        14639 
 4740000    1.0084393  -0.35204508      1728000    395.08031        23700        14676 
 4750000   0.97794885  -0.37428713      1728000    395.94942        23750        14703 
 4760000   0.96182244  -0.36979452      1728000    396.78016        23800        14730 
 4770000   0.97462224  -0.39596354      1728000    397.62008        23850        14761 
 4780000    1.0525537  -0.35462407      1728000    398.44822        23900        14793 
 4790000    1.0455457  -0.36129255      1728000    399.27342        23950        14827 
 4800000   0.99955262  -0.34088859      1728000    400.12856        24000        14857 
 4810000   0.98585312  -0.35617135      1728000    400.97968        24050        14889 
 4820000   0.94983565  -0.33633192      1728000    401.79114        24100        14924 
 4830000    1.0062987  -0.34459185      1728000    402.60263        24150        14952 
 4840000   0.98116296  -0.34227398      1728000     403.4268        24200        14981 
 4850000    1.0041789  -0.33271098      1728000    404.27892        24250        15017 
 4860000   0.96463879  -0.33405279      1728000    405.14902        24300        15044 
 4870000     1.043046  -0.33710965      1728000    406.02224        24350        15077 
 4880000    1.0250671   -0.3518744      1728000    406.87446        24400        15108 
 4890000    1.0087552   -0.3491306      1728000    407.68515        24450        15143 
 4900000   0.92808053   -0.3665647      1728000    408.49991        24500        15176 
 4910000   0.95665958  -0.32715491      1728000    409.30634        24550        15206 
 4920000    1.0066057  -0.33730386      1728000    410.14414        24600        15238 
 4930000   0.92125988  -0.32115883      1728000    410.96838        24650        15265 
 4940000    1.0048363  -0.34312913      1728000    411.78932        24700        15298 
 4950000   0.96372594  -0.32061959      1728000     412.6001        24750        15329 
 4960000   0.97196113  -0.33242176      1728000    413.44424        24800        15357 
 4970000     1.050585  -0.35417818      1728000    414.25431        24850        15383 
 4980000    1.0496269  -0.37437885      1728000    415.06623        24900        15420 
 4990000    0.9994234  -0.33131393      1728000    415.87924        24950        15447 
 5000000    1.0325434  -0.36136961      1728000    416.74544        25000        15476 
 5010000   0.94235071  -0.35775735      1728000     417.5652        25050        15512 
 5020000   0.94095171  -0.34625976      1728000    418.37039        25100        15546 
 5030000    0.9710271  -0.36054679      1728000    419.17441        25150        15575 
 5040000   0.96997741  -0.34282585      1728000    419.99233        25200        15611 
 5050000    1.0248487  -0.34496498      1728000    420.79326        25250        15647 
 5060000    1.0299815     -0.35287      1728000    421.60281        25300        15679 
 5070000    1.0267154  -0.36101504      1728000    422.41427        25350        15709 
 5080000   0.96144939  -0.37947902      1728000    423.22556        25400        15741 
 5090000   0.94494512  -0.36072436      1728000      424.063        25450        15771 
 5100000   0.99428602  -0.35863938      1728000    424.87535        25500        15797 
 5110000     1.095566  -0.35595133      1728000    425.69253        25550        15832 
 5120000    1.0513125  -0.35808319      1728000    426.50716        25600        15860 
 5130000    1.0182041  -0.37667444      1728000    427.32664        25650        15887 
 5140000   0.94471419  -0.37939412      1728000    428.14003        25700        15914 
 5150000   0.96710039  -0.36692971      1728000    428.95142        25750        15946 
 5160000    1.0288542  -0.35787649      1728000    429.76513        25800        15974 
 5170000   0.98794394  -0.38060346      1728000    430.56722        25850        16000 
 5180000    1.0010094  -0.36536229      1728000    431.42038        25900        16030 
 5190000    1.0077302  -0.36506604      1728000    432.28647        25950        16054 
 5200000   0.99426776  -0.32384842      1728000    433.14224        26000        16090 
 5210000   0.95753946  -0.32532682      1728000    433.94858        26050        16125 
 5220000   0.98989999  -0.33902943      1728000    434.76611        26100        16152 
 5230000    1.0907005  -0.34462436      1728000    435.58188        26150        16188 
 5240000   0.99262949  -0.32882202      1728000    436.39906        26200        16226 
 5250000    1.0345994  -0.35842278      1728000    437.23807        26250        16252 
 5260000   0.98179195  -0.36167873      1728000    438.05379        26300        16282 
 5270000    1.0775647    -0.337594      1728000    438.85928        26350        16316 
 5280000   0.90538398  -0.33487845      1728000    439.66935        26400        16341 
 5290000    1.0068059  -0.35310561      1728000    440.49565        26450        16370 
 5300000    1.0325267  -0.35117317      1728000    441.33082        26500        16397 
 5310000   0.98631702  -0.33653759      1728000    442.17043        26550        16428 
 5320000    1.0465886   -0.3439251      1728000    442.98773        26600        16460 
 5330000    1.0278781  -0.32997114      1728000     443.7911        26650        16492 
 5340000    1.0419619  -0.34917756      1728000    444.59134        26700        16526 
 5350000    1.0291605  -0.34086938      1728000    445.39914        26750        16558 
 5360000    1.0838403  -0.36617132      1728000    446.22094        26800        16584 
 5370000   0.94959277  -0.35318562      1728000    447.02942        26850        16615 
 5380000    1.0187798  -0.34522019      1728000    447.84053        26900        16646 
 5390000   0.94797053  -0.32771579      1728000    448.65083        26950        16680 
 5400000   0.99845838  -0.34689536      1728000    449.46815        27000        16710 
 5410000    1.0591626  -0.33300981      1728000    450.27622        27050        16736 
 5420000    1.0361183  -0.34533926      1728000    451.08541        27100        16770 
 5430000    0.9446494  -0.36623913      1728000    451.92211        27150        16804 
 5440000     1.007108  -0.36417125      1728000    452.74058        27200        16835 
 5450000    1.0304036  -0.37135508      1728000    453.54918        27250        16866 
 5460000    1.0683349   -0.3561254      1728000    454.36542        27300        16894 
 5470000   0.97819132  -0.35175044      1728000    455.17711        27350        16923 
 5480000   0.95313303  -0.37345784      1728000    455.98661        27400        16955 
 5490000    0.9902588  -0.36791577      1728000    456.79914        27450        16980 
 5500000    1.0466585  -0.35447299      1728000    457.66243        27500        17015 
 5510000   0.98300058  -0.39498319      1728000    458.47612        27550        17046 
 5520000    1.0325745  -0.36804642      1728000    459.29272        27600        17079 
 5530000   0.97537991  -0.34980465      1728000    460.10288        27650        17110 
 5540000      1.07204  -0.35391249      1728000    460.90515        27700        17140 
 5550000   0.95516375  -0.36767149      1728000     461.7413        27750        17168 
 5560000    1.0369176  -0.37365346      1728000    462.56347        27800        17196 
 5570000   0.99757349  -0.35248446      1728000    463.36596        27850        17231 
 5580000    1.0537897  -0.35727088      1728000    464.16832        27900        17262 
 5590000   0.95882088  -0.33660639      1728000    464.97356        27950        17288 
 5600000   0.93395725  -0.35779858      1728000    465.79186        28000        17322 
 5610000    1.0014471  -0.35367634      1728000     466.6011        28050        17354 
 5620000    1.0514218  -0.33028512      1728000    467.43339        28100        17383 
 5630000    1.0625532  -0.35998642      1728000    468.31149        28150        17414 
 5640000   0.95217634  -0.33627472      1728000    469.18959        28200        17443 
 5650000    1.0444452  -0.32419203      1728000    470.01775        28250        17476 
 5660000    1.0063514  -0.33618673      1728000    470.84233        28300        17500 
 5670000    1.0300651  -0.35711346      1728000    471.67747        28350        17534 
 5680000    1.0559737  -0.34752287      1728000     472.5046        28400        17566 
 5690000    1.0236873  -0.34748032      1728000     473.3122        28450        17599 
 5700000     1.058249  -0.35720577      1728000    474.15141        28500        17631 
 5710000   0.99846693  -0.33702768      1728000    474.96822        28550        17656 
 5720000   0.96562307  -0.33206643      1728000    475.81445        28600        17685 
 5730000    1.0091218  -0.34254904      1728000    476.62377        28650        17710 
 5740000    1.0347714  -0.33125447      1728000    477.43408        28700        17739 
 5750000    1.0080443  -0.34054707      1728000    478.28312        28750        17769 
 5760000    1.0249984  -0.35119136      1728000    479.10967        28800        17801 
 5770000   0.97284104  -0.32651327      1728000    479.93883        28850        17832 
 5780000   0.94310377  -0.33074816      1728000    480.76691        28900        17861 
 5790000     1.014615  -0.33367131      1728000    481.59108        28950        17888 
 5800000    1.0303667  -0.33454456      1728000    482.41223        29000        17920 
 5810000   0.96372418  -0.32575701      1728000    483.30711        29050        17957 
 5820000   0.99206939  -0.33165602      1728000    484.11474        29100        17990 
 5830000    1.0789101  -0.32690201      1728000     484.9242        29150        18018 
 5840000    1.1372907  -0.33220982      1728000    485.73464        29200        18047 
 5850000    1.0469379  -0.31931346      1728000    486.54282        29250        18079 
 5860000   0.94079443  -0.33826336      1728000    487.35798        29300        18111 
 5870000    1.0002703   -0.3257799      1728000    488.17614        29350        18144 
 5880000   0.98668534  -0.32392259      1728000    488.99159        29400        18177 
 5890000    1.0210802  -0.32964101      1728000    489.81474        29450        18208 
 5900000   0.97900305  -0.30482438      1728000    490.63994        29500        18242 
 5910000    1.0088726  -0.32335148      1728000    491.50706        29550        18272 
 5920000   0.98842598  -0.32638512      1728000     492.3373        29600        18304 
 5930000    1.0143205  -0.32014054      1728000    493.15746        29650        18338 
 5940000   0.98268955  -0.32579709      1728000    493.98003        29700        18368 
 5950000    1.0419693  -0.31651227      1728000    494.79061        29750        18399 
 5960000   0.99481992  -0.31845544      1728000     495.6161        29800        18435 
 5970000    1.0419437  -0.32465805      1728000    496.41957        29850        18469 
 5980000    1.0019291  -0.33595422      1728000    497.26172        29900        18496 
 5990000     1.030355   -0.3378075      1728000    498.13188        29950        18526 
 6000000    1.0166882    -0.355615      1728000    498.97517        30000        18552 
 6010000   0.99378459  -0.38380607      1728000    499.78834        30050        18583 
 6020000    1.0051757  -0.36775028      1728000    500.62315        30100        18610 
 6030000    1.1072319  -0.38436128      1728000    501.44955        30150        18647 
 6040000   0.99389529  -0.37874466      1728000    502.32345        30200        18680 
 6050000    1.0360332   -0.3687814      1728000    503.15006        30250        18706 
 6060000    1.0591329  -0.38028033      1728000    503.97507        30300        18737 
 6070000   0.98568003  -0.35430187      1728000    504.83321        30350        18767 
 6080000    1.0290617   -0.3486241      1728000    505.67847        30400        18801 
 6090000   0.96346418  -0.33582483      1728000    506.51795        30450        18837 
 6100000   0.97600562  -0.31561001      1728000    507.35129        30500        18871 
 6110000    1.0010488  -0.33054778      1728000    508.16647        30550        18901 
 6120000    1.1210791  -0.33697133      1728000    509.02558        30600        18932 
 6130000    1.0412155   -0.3364297      1728000    509.84813        30650        18961 
 6140000   0.97103068  -0.33290074      1728000    510.70441        30700        18993 
 6150000    1.0228052  -0.32401743      1728000    511.55952        30750        19028 
 6160000   0.95223309  -0.34088363      1728000    512.38493        30800        19061 
 6170000    1.0327765  -0.33263543      1728000    513.20015        30850        19089 
 6180000    1.0135165  -0.34083842      1728000     514.0129        30900        19124 
 6190000    1.0187273  -0.35912545      1728000    514.85105        30950        19159 
 6200000     1.058322  -0.33888571      1728000    515.71648        31000        19195 
 6210000   0.96457724  -0.34878264      1728000    516.60465        31050        19225 
 6220000    1.0191795   -0.3743327      1728000     517.4528        31100        19257 
 6230000   0.97299128  -0.36122128      1728000    518.27504        31150        19281 
 6240000     1.063384  -0.37727009      1728000    519.08922        31200        19310 
 6250000   0.96995656     -0.37257      1728000    519.92335        31250        19349 
 6260000    1.0002164  -0.38842296      1728000    520.74715        31300        19381 
 6270000    1.0247284  -0.37546318      1728000    521.59526        31350        19416 
 6280000    1.0006035  -0.37506374      1728000    522.46138        31400        19442 
 6290000    1.0229907  -0.37900483      1728000    523.31051        31450        19465 
 6300000   0.92870004  -0.37534982      1728000    524.21558        31500        19496 
 6310000    1.0000885  -0.36946155      1728000    525.06371        31550        19523 
 6320000   0.97989257   -0.3557057      1728000    525.91598        31600        19549 
 6330000    1.0114451  -0.36098465      1728000    526.81106        31650        19576 
 6340000   0.97904261  -0.37256996      1728000    527.71614        31700        19611 
 6350000    1.0261877  -0.35136473      1728000    528.58724        31750        19646 
 6360000    1.0313615  -0.34141341      1728000    529.41945        31800        19681 
 6370000   0.99635444  -0.35083739      1728000    530.27166        31850        19715 
 6380000    1.0019749  -0.37279439      1728000    531.10383        31900        19747 
 6390000     1.034306  -0.39198246      1728000    531.93416        31950        19777 
 6400000    1.0137377  -0.39850935      1728000    532.80729        32000        19807 
 6410000    1.0216756  -0.38294621      1728000    533.66287        32050        19834 
 6420000    1.0023124  -0.38471575      1728000    534.49701        32100        19865 
 6430000   0.98299844  -0.40231349      1728000    535.31839        32150        19894 
 6440000    1.0245327  -0.38557434      1728000    536.14002        32200        19931 
 6450000    1.0049985  -0.38308789      1728000     536.9672        32250        19959 
 6460000   0.95464915  -0.36858185      1728000    537.79634        32300        19996 
 6470000    1.0125088  -0.38003459      1728000    538.62065        32350        20022 
 6480000    1.0063184  -0.37771137      1728000     539.4959        32400        20048 
 6490000   0.95312233  -0.38718271      1728000    540.32805        32450        20078 
 6500000   0.96034263  -0.36411955      1728000    541.17278        32500        20106 
 6510000   0.98878927  -0.34514933      1728000    542.01917        32550        20133 
 6520000   0.99411907  -0.36564318      1728000    542.88109        32600        20163 
 6530000   0.99536633  -0.36173003      1728000     543.7191        32650        20194 
 6540000    1.0073468  -0.34083872      1728000    544.57033        32700        20223 
 6550000    1.0304243  -0.33631665      1728000    545.41294        32750        20248 
 6560000     1.071961  -0.33543467      1728000    546.29204        32800        20277 
 6570000    1.0266315  -0.35163729      1728000    547.11816        32850        20307 
 6580000     0.992257  -0.33544445      1728000    547.93833        32900        20339 
 6590000   0.98386668  -0.38402792      1728000    548.75215        32950        20373 
 6600000    1.0148881  -0.36966179      1728000     549.6053        33000        20401 
 6610000    1.1083009  -0.38519657      1728000    550.43637        33050        20439 
 6620000    0.9504853  -0.35884532      1728000    551.31747        33100        20470 
 6630000     0.995437  -0.34717377      1728000    552.13707        33150        20504 
 6640000    1.0212039  -0.37076386      1728000    552.95168        33200        20530 
 6650000    1.0228943  -0.37458282      1728000    553.78531        33250        20562 
 6660000   0.95769476  -0.38705655      1728000    554.62844        33300        20593 
 6670000   0.99962062  -0.39201741      1728000    555.46409        33350        20619 
 6680000   0.97254404  -0.36641787      1728000    556.29524        33400        20651 
 6690000   0.98840202  -0.36514151      1728000    557.12879        33450        20681 
 6700000   0.97645063  -0.37109764      1728000    557.96302        33500        20715 
 6710000    1.0092457  -0.36437565      1728000    558.77384        33550        20747 
 6720000   0.99021706    -0.368757      1728000    559.59501        33600        20784 
 6730000    1.0130753  -0.35219802      1728000    560.43215        33650        20814 
 6740000    1.0335386  -0.36228282      1728000    561.24521        33700        20843 
 6750000   0.99526347  -0.38007349      1728000    562.08134        33750        20875 
 6760000   0.98732606  -0.36109799      1728000    562.92357        33800        20911 
 6770000   0.97722533  -0.35966491      1728000    563.76783        33850        20941 
 6780000    1.0062671  -0.33960183      1728000     564.6159        33900        20969 
 6790000   0.97269965  -0.34930824      1728000    565.43861        33950        21000 
 6800000   0.96577354  -0.34588239      1728000    566.27975        34000        21029 
 6810000   0.90764252  -0.32990551      1728000    567.11889        34050        21058 
 6820000    1.0132102  -0.33546111      1728000    567.95303        34100        21092 
 6830000   0.98305827  -0.34859169      1728000    568.81215        34150        21124 
 6840000   0.98377959  -0.35135227      1728000    569.64631        34200        21157 
 6850000   0.96888379  -0.35352343      1728000    570.47383        34250        21187 
 6860000    1.0673632  -0.34463119      1728000    571.37392        34300        21219 
 6870000   0.99140305  -0.34678204      1728000    572.21805        34350        21246 
 6880000    1.0439765  -0.33487507      1728000    573.04425        34400        21278 
 6890000    1.0218018  -0.33746264      1728000    573.85273        34450        21305 
 6900000    1.0202149  -0.33628747      1728000     574.6719        34500        21338 
 6910000   0.91934577  -0.33124933      1728000     575.4981        34550        21372 
 6920000    1.0344882  -0.34213127      1728000    576.31437        34600        21401 
 6930000    1.0064664  -0.33252483      1728000     577.1311        34650        21438 
 6940000    1.0310374  -0.33888133      1728000    577.94178        34700        21474 
 6950000   0.98326154  -0.34158081      1728000    578.77322        34750        21508 
 6960000   0.98569169  -0.36185481      1728000    579.58514        34800        21542 
 6970000    1.0266885   -0.3547961      1728000     580.4252        34850        21570 
 6980000   0.99649386  -0.36084017      1728000    581.24707        34900        21596 
 6990000    1.0032494  -0.36438229      1728000    582.11704        34950        21618 
 7000000   0.97720158  -0.36192113      1728000    582.95646        35000        21649 
 7010000   0.94600398  -0.34332128      1728000    583.76807        35050        21677 
 7020000    1.0170649  -0.36562355      1728000    584.58603        35100        21700 
 7030000   0.98099786  -0.30943414      1728000    585.40119        35150        21737 
 7040000     1.044692  -0.31729978      1728000    586.24733        35200        21769 
 7050000   0.98738496  -0.29516457      1728000    587.08646        35250        21802 
 7060000    1.0090925  -0.29975257      1728000    587.89069        35300        21839 
 7070000    1.0111977  -0.30079725      1728000    588.71383        35350        21878 
 7080000    0.9588347  -0.33278104      1728000    589.56522        35400        21910 
 7090000   0.94879049  -0.32638818      1728000    590.40943        35450        21942 
 7100000   0.99260936   -0.3318314      1728000    591.24718        35500        21970 
 7110000   0.99661187  -0.34275711      1728000    592.05645        35550        22002 
 7120000   0.98412292  -0.33963052      1728000    592.87283        35600        22032 
 7130000    1.0377684  -0.33424754      1728000    593.68498        35650        22066 
 7140000   0.95172807  -0.33754652      1728000    594.49288        35700        22093 
 7150000    1.0801275  -0.34365137      1728000      595.346        35750        22125 
 7160000    1.0476691   -0.3264629      1728000    596.17638        35800        22155 
 7170000    1.0831145  -0.32870649      1728000    596.98284        35850        22181 
 7180000    1.0129573  -0.30582782      1728000    597.79672        35900        22213 
 7190000   0.95595697  -0.33587733      1728000    598.63639        35950        22242 
 7200000   0.98496598  -0.31971859      1728000    599.45417        36000        22279 
 7210000   0.99126591  -0.33791152      1728000    600.29766        36050        22314 
 7220000   0.97103099  -0.32383411      1728000    601.17506        36100        22343 
 7230000    1.0169007  -0.33614843      1728000    602.02319        36150        22371 
 7240000   0.97551286  -0.32094726      1728000    602.85033        36200        22402 
 7250000   0.95588519  -0.31698041      1728000     603.6716        36250        22435 
 7260000   0.97289858  -0.32865361      1728000    604.48499        36300        22467 
 7270000    0.9844234  -0.34016249      1728000    605.29517        36350        22502 
 7280000    1.0185479  -0.35003795      1728000     606.1373        36400        22531 
 7290000    0.9989613  -0.34373882      1728000     606.9656        36450        22565 
 7300000    1.0194741  -0.36496705      1728000    607.81073        36500        22592 
 7310000   0.99070202  -0.37133283      1728000    608.65786        36550        22620 
 7320000   0.95700544  -0.34978316      1728000    609.47509        36600        22657 
 7330000    1.0152122  -0.32585147      1728000    610.32222        36650        22689 
 7340000    1.0148406  -0.32745791      1728000    611.20632        36700        22727 
 7350000   0.91284011  -0.34552227      1728000    612.04547        36750        22765 
 7360000    1.0132547  -0.33884105      1728000    612.86992        36800        22801 
 7370000      1.01853  -0.35410079      1728000    613.82997        36850        22822 
 7380000   0.93744587  -0.35843078      1728000     614.6811        36900        22849 
 7390000    0.9676468  -0.34703904      1728000    615.52324        36950        22880 
 7400000   0.95017567  -0.34579926      1728000    616.41334        37000        22907 
 7410000   0.95187902  -0.36492317      1728000    617.25773        37050        22933 
 7420000    1.0579615  -0.38755203      1728000    618.09494        37100        22964 
 7430000   0.95068045  -0.35745751      1728000    618.92371        37150        22997 
 7440000    1.0310327  -0.38413517      1728000    619.79281        37200        23026 
 7450000    1.0691872  -0.34408703      1728000    620.65396        37250        23056 
 7460000   0.97954918   -0.3743704      1728000    621.50511        37300        23083 
 7470000   0.94869908  -0.38562478      1728000    622.36823        37350        23113 
 7480000   0.92324522  -0.36548264      1728000      623.217        37400        23145 
 7490000   0.99563786   -0.3986734      1728000    624.04225        37450        23170 
 7500000    1.0027034  -0.37259173      1728000    624.89596        37500        23199 
 7510000    1.0737571  -0.38747689      1728000    625.75806        37550        23227 
 7520000    0.9967004  -0.36913851      1728000    626.66814        37600        23260 
 7530000    1.0268624  -0.36851571      1728000    627.54926        37650        23294 
 7540000   0.96351126  -0.37212914      1728000    628.50828        37700        23318 
 7550000   0.89917646  -0.36632757      1728000    629.38638        37750        23343 
 7560000     1.033787  -0.35325457      1728000    630.20555        37800        23379 
 7570000    1.0147857  -0.35308512      1728000    631.05172        37850        23413 
 7580000   0.99612197  -0.37407076      1728000    631.88014        37900        23446 
 7590000   0.92984743  -0.35895966      1728000      632.713        37950        23477 
 7600000   0.99847648  -0.35349602      1728000     633.5392        38000        23511 
 7610000    1.0058507  -0.35687443      1728000    634.38536        38050        23548 
 7620000    1.0112318  -0.36720799      1728000    635.21651        38100        23578 
 7630000   0.95960094  -0.35256186      1728000    636.05486        38150        23609 
 7640000   0.95795223  -0.35085287      1728000    636.94597        38200        23638 
 7650000     0.957817   -0.3628343      1728000    637.78411        38250        23669 
 7660000    1.0412587  -0.35947483      1728000     638.6692        38300        23698 
 7670000   0.96104769  -0.35001178      1728000     639.5433        38350        23734 
 7680000   0.98351526  -0.34730665      1728000    640.36047        38400        23764 
 7690000    1.0215518  -0.34961537      1728000    641.18801        38450        23799 
 7700000   0.98849326  -0.34265013      1728000     642.0292        38500        23827 
 7710000    0.9796132  -0.37522706      1728000    642.86593        38550        23854 
 7720000   0.95214942  -0.36311044      1728000    643.71413        38600        23885 
[...]
47970000   0.97798979  -0.33457149      1728000    4003.5203       239850       147837 
47980000   0.94121958  -0.34988895      1728000    4004.4184       239900       147872 
47990000    1.0559321  -0.32453994      1728000    4005.3642       239950       147909 
48000000    1.0109119   -0.3324709      1728000    4006.2298       240000       147941 
48010000    1.0133772  -0.34069406      1728000    4007.0496       240050       147973 
48020000   0.96768966  -0.33472819      1728000    4007.8807       240100       148005 
48030000   0.96856722  -0.31412265      1728000    4008.7099       240150       148039 
48040000    1.0221622  -0.32545257      1728000    4009.5398       240200       148071 
48050000    1.0286436  -0.31701119      1728000    4010.4117       240250       148095 
48060000   0.98472045  -0.30329556      1728000    4011.3709       240300       148126 
48070000    1.0049154   -0.3038076      1728000    4012.2435       240350       148160 
48080000   0.97819954  -0.30101672      1728000    4013.1536       240400       148192 
48090000    1.0461927   -0.3159734      1728000    4014.0367       240450       148228 
48100000    1.0177389  -0.32706841      1728000    4014.9607       240500       148263 
48110000   0.95658533  -0.35046539      1728000    4015.8508       240550       148295 
48120000   0.99296168  -0.31972973      1728000    4016.7489       240600       148327 
48130000    1.0492681  -0.32576258      1728000     4017.618       240650       148362 
48140000    1.0000756  -0.31574896      1728000    4018.4745       240700       148396 
48150000    1.0066443  -0.32681085      1728000    4019.2906       240750       148433 
48160000   0.99651392  -0.35105821      1728000    4020.1468       240800       148467 
48170000    1.0394546  -0.33824919      1728000    4020.9638       240850       148504 
48180000    1.0037789  -0.32778793      1728000    4021.8363       240900       148535 
48190000   0.95519525  -0.32977623      1728000    4022.6854       240950       148569 
48200000   0.97433672  -0.31137517      1728000    4023.5245       241000       148599 
48210000    1.0107785  -0.33439024      1728000    4024.3634       241050       148633 
48220000    1.1004267  -0.35917594      1728000    4025.2494       241100       148667 
48230000   0.98116472   -0.3455161      1728000    4026.0806       241150       148697 
48240000   0.96758039  -0.34066593      1728000    4026.9107       241200       148727 
48250000   0.98281264  -0.34674689      1728000    4027.7539       241250       148758 
48260000    0.9937437   -0.3642046      1728000     4028.591       241300       148785 
48270000    1.0027693  -0.36646582      1728000    4029.4192       241350       148815 
48280000   0.96961508  -0.36674531      1728000    4030.2453       241400       148846 
48290000   0.97144001  -0.35688798      1728000    4031.1254       241450       148879 
48300000    1.0923902   -0.3740412      1728000    4032.0255       241500       148911 
48310000    1.0401333  -0.36469042      1728000    4032.9336       241550       148940 
48320000   0.99534811  -0.33528405      1728000    4033.7767       241600       148976 
48330000   0.95048946  -0.34312102      1728000    4034.6139       241650       149010 
48340000   0.99620229  -0.36045136      1728000     4035.476       241700       149036 
48350000   0.98442708  -0.34111169      1728000    4036.3321       241750       149068 
48360000   0.95810878  -0.35047119      1728000    4037.2082       241800       149099 
48370000   0.96609042  -0.33694347      1728000    4038.0643       241850       149128 
48380000    1.0010806  -0.34243699      1728000    4038.9237       241900       149160 
48390000   0.94222312  -0.31857882      1728000    4039.7878       241950       149199 
48400000    1.0107292  -0.35886982      1728000    4040.6198       242000       149233 
48410000   0.97933998  -0.34090568      1728000    4041.4538       242050       149267 
48420000   0.99211019  -0.33484582      1728000    4042.2998       242100       149296 
48430000    1.0673681  -0.33070951      1728000    4043.1678       242150       149325 
48440000    1.0108244    -0.331198      1728000    4044.0085       242200       149359 
48450000    1.0662062  -0.33468384      1728000    4044.8489       242250       149391 
48460000    1.0558593   -0.3354957      1728000     4045.682       242300       149425 
48470000    1.0196408   -0.2952383      1728000    4046.5231       242350       149462 
48480000    1.0566013  -0.29170727      1728000    4047.3883       242400       149495 
48490000    1.0002527  -0.31193443      1728000    4048.2274       242450       149529 
48500000    1.0127464   -0.3127183      1728000    4049.1189       242500       149558 
48510000   0.98827609   -0.3410763      1728000    4049.9611       242550       149590 
48520000    1.0245678  -0.29598021      1728000    4050.8022       242600       149617 
48530000    1.0523933  -0.33717019      1728000    4051.6404       242650       149653 
48540000    1.0447711  -0.33165466      1728000    4052.4677       242700       149686 
48550000   0.96543431  -0.33961948      1728000    4053.3238       242750       149712 
48560000    0.9812207    -0.334305      1728000     4054.157       242800       149743 
48570000    1.0472647  -0.35189674      1728000    4054.9881       242850       149776 
48580000   0.94435362  -0.34093503      1728000    4055.8272       242900       149807 
48590000    1.0231239  -0.37224535      1728000    4056.6724       242950       149838 
48600000    1.0646266   -0.3670609      1728000    4057.5615       243000       149869 
48610000   0.98574677  -0.36328248      1728000    4058.3928       243050       149896 
48620000   0.98336998  -0.35778216      1728000    4059.2487       243100       149927 
48630000    1.0332813  -0.38246411      1728000    4060.0788       243150       149960 
48640000    1.0576872  -0.37210927      1728000    4060.9298       243200       149991 
48650000   0.98088332  -0.36449891      1728000    4061.7576       243250       150019 
48660000   0.99426769  -0.35059597      1728000    4062.6186       243300       150044 
48670000    1.0272476  -0.34253508      1728000    4063.4616       243350       150074 
48680000   0.96081409  -0.37815145      1728000    4064.3337       243400       150102 
48690000   0.97345388  -0.35037753      1728000    4065.2337       243450       150136 
48700000    1.0271947  -0.36619257      1728000    4066.1008       243500       150164 
48710000    1.0932616  -0.35752364      1728000     4066.967       243550       150196 
48720000   0.96656489  -0.35759225      1728000    4067.8116       243600       150221 
48730000   0.95130921  -0.37657749      1728000    4068.6437       243650       150249 
48740000   0.96605599  -0.35672346      1728000    4069.5948       243700       150277 
48750000   0.93850105  -0.34714908      1728000     4070.436       243750       150313 
48760000   0.97540232  -0.32734672      1728000    4071.3181       243800       150343 
48770000    1.0453471  -0.33725154      1728000    4072.1616       243850       150372 
48780000     1.007018  -0.35053499      1728000    4073.0721       243900       150410 
48790000    1.0502283  -0.36202506      1728000    4073.9292       243950       150436 
48800000   0.98557788  -0.33998191      1728000    4074.8013       244000       150468 
48810000   0.98182717  -0.33582139      1728000    4075.6445       244050       150499 
48820000   0.99999891  -0.35053582      1728000    4076.6115       244100       150533 
48830000    1.0036096  -0.35878938      1728000    4077.5046       244150       150560 
48840000   0.97101035  -0.35475615      1728000    4078.3707       244200       150584 
48850000   0.95826843  -0.32348926      1728000    4079.2157       244250       150618 
48860000   0.98503121  -0.35777711      1728000     4080.075       244300       150651 
48870000   0.94293734   -0.3451579      1728000    4080.9191       244350       150678 
48880000   0.99172747  -0.35742307      1728000    4081.7813       244400       150706 
48890000    1.0452251  -0.30243768      1728000    4082.6554       244450       150735 
48900000    1.0225549   -0.3192241      1728000    4083.4965       244500       150769 
48910000    1.0097676  -0.31592936      1728000    4084.3206       244550       150802 
48920000    1.0425359  -0.32356753      1728000    4085.1618       244600       150835 
48930000   0.90923438  -0.31684302      1728000    4086.0389       244650       150866 
48940000    1.0277386  -0.32449068      1728000    4086.9769       244700       150894 
48950000    1.0280241   -0.3098883      1728000     4087.865       244750       150925 
48960000   0.95617474  -0.32721604      1728000    4088.7201       244800       150960 
48970000    1.0984995  -0.38161818      1728000    4089.5833       244850       150994 
48980000   0.99076241    -0.372444      1728000    4090.4274       244900       151022 
48990000    1.0163976  -0.37361465      1728000    4091.3055       244950       151054 
49000000    1.0505977  -0.36143223      1728000    4092.1586       245000       151087 
49010000    0.9303757  -0.35664149      1728000    4092.9838       245050       151123 
49020000   0.99880277  -0.34665555      1728000    4093.8105       245100       151158 
49030000   0.99186731  -0.36066374      1728000    4094.6437       245150       151198 
49040000   0.99851721  -0.39115597      1728000    4095.4777       245200       151228 
49050000    0.9528602  -0.40164809      1728000    4096.3195       245250       151262 
49060000   0.97949801  -0.38440765      1728000    4097.1736       245300       151293 
49070000    1.0272987  -0.37899874      1728000    4098.0047       245350       151324 
49080000    1.0018906   -0.3541308      1728000    4098.8315       245400       151353 
49090000   0.95402872  -0.35799226      1728000    4099.6767       245450       151382 
49100000    1.0001396  -0.34852413      1728000    4100.5176       245500       151417 
49110000    1.0666312  -0.36205778      1728000    4101.3467       245550       151451 
49120000    1.0274043  -0.36543606      1728000    4102.1955       245600       151483 
49130000   0.96209717  -0.33588013      1728000    4103.0625       245650       151515 
49140000    1.0431018  -0.34662452      1728000    4103.9136       245700       151542 
49150000    1.0002366  -0.36301298      1728000    4104.7966       245750       151575 
49160000    1.0004984  -0.33381719      1728000    4105.6364       245800       151615 
49170000    1.0076769  -0.35272733      1728000    4106.5146       245850       151652 
49180000    1.0025079  -0.31857881      1728000    4107.3607       245900       151683 
49190000    0.9945828  -0.34232055      1728000    4108.2326       245950       151715 
49200000   0.98767403  -0.35165726      1728000    4109.4683       246000       151753 
49210000   0.99481561  -0.34955544      1728000    4110.3405       246050       151780 
49220000    0.9731337   -0.3255515      1728000    4111.1715       246100       151816 
49230000    1.0555368  -0.31851637      1728000    4111.9856       246150       151849 
49240000   0.96409085   -0.3389599      1728000    4112.8118       246200       151879 
49250000   0.99439992  -0.35466701      1728000    4113.6816       246250       151908 
49260000    1.0568752  -0.36500952      1728000    4114.5531       246300       151941 
49270000    1.0199881  -0.36643304      1728000    4115.3764       246350       151972 
49280000   0.99499691  -0.36321881      1728000    4116.1967       246400       152003 
49290000   0.99360387  -0.38984759      1728000    4117.0646       246450       152030 
49300000    1.0250087  -0.38797319      1728000    4117.9306       246500       152064 
49310000   0.97162323   -0.4125561      1728000    4118.7817       246550       152094 
49320000   0.99811466  -0.39165735      1728000    4119.6389       246600       152118 
49330000    1.0083313  -0.36315784      1728000    4120.4746       246650       152148 
49340000    1.0087236  -0.35201439      1728000    4121.4327       246700       152174 
49350000   0.98012904   -0.3522708      1728000    4122.3447       246750       152202 
49360000   0.94141014   -0.3677478      1728000    4123.1903       246800       152229 
49370000   0.91693361  -0.36666228      1728000    4124.0679       246850       152262 
49380000   0.96027262  -0.38804887      1728000    4124.8967       246900       152292 
49390000    1.0192431  -0.37502776      1728000    4125.7717       246950       152324 
49400000    1.0021535  -0.37898667      1728000    4126.6037       247000       152350 
49410000    1.0026077  -0.35601727      1728000    4127.4407       247050       152383 
49420000    1.0282225    -0.331267      1728000    4128.2616       247100       152417 
49430000   0.97744026  -0.34587705      1728000    4129.0707       247150       152450 
49440000   0.93366687  -0.34605725      1728000    4129.8876       247200       152486 
49450000   0.90997952  -0.33962848      1728000    4130.7136       247250       152517 
49460000    0.9646171  -0.33545208      1728000    4131.6303       247300       152545 
49470000   0.98384403  -0.31398519      1728000    4132.7152       247350       152582 
49480000    1.0672696  -0.35239399      1728000    4133.5666       247400       152617 
49490000   0.97616437  -0.33178107      1728000    4134.4805       247450       152647 
49500000   0.93189078  -0.30473616      1728000    4135.3306       247500       152682 
49510000    1.0080006  -0.30568783      1728000    4136.1703       247550       152713 
49520000    1.0542836   -0.3242393      1728000    4137.0166       247600       152745 
49530000    1.0231959  -0.33005516      1728000    4137.8632       247650       152779 
49540000    1.0337666  -0.31339102      1728000    4138.7164       247700       152810 
49550000   0.98878402  -0.31742863      1728000    4139.5755       247750       152842 
49560000   0.97296874  -0.30211676      1728000    4140.4406       247800       152872 
49570000   0.96382099   -0.3398384      1728000    4141.2687       247850       152909 
49580000    1.0079603  -0.32315566      1728000    4142.0819       247900       152941 
49590000   0.97828407  -0.30642787      1728000    4142.8999       247950       152972 
49600000    1.0002566  -0.31652588      1728000     4143.756       248000       153006 
49610000   0.96381781  -0.30947832      1728000    4144.5636       248050       153041 
49620000    1.0304558  -0.32929108      1728000    4145.3976       248100       153076 
49630000   0.92456749   -0.3265807      1728000    4146.2345       248150       153107 
49640000    1.0105213  -0.35529991      1728000    4147.1355       248200       153141 
49650000    1.0519737  -0.35249005      1728000    4148.1075       248250       153170 
49660000    1.1057108  -0.32864733      1728000    4148.9406       248300       153207 
49670000   0.96268518   -0.3311943      1728000    4149.8299       248350       153239 
49680000   0.98410833  -0.32258928      1728000    4150.6561       248400       153271 
49690000    1.0114673   -0.3278202      1728000    4151.4913       248450       153299 
49700000    0.9910283  -0.34913773      1728000    4152.3524       248500       153326 
49710000   0.96074655  -0.33303625      1728000    4153.1925       248550       153358 
49720000   0.96416248  -0.32261856      1728000    4154.0304       248600       153394 
49730000    1.0248704  -0.34837413      1728000    4154.9985       248650       153430 
49740000   0.97056873  -0.36037058      1728000     4155.827       248700       153463 
49750000    1.0278406  -0.33916234      1728000    4156.6621       248750       153497 
49760000    1.0245295  -0.33575811      1728000    4157.4992       248800       153529 
49770000    1.0343026  -0.34741645      1728000    4158.3434       248850       153560 
49780000    1.0197408  -0.35139564      1728000    4159.1865       248900       153594 
49790000   0.98877702  -0.34845115      1728000    4160.0336       248950       153630 
49800000   0.98934605  -0.34154226      1728000    4160.8573       249000       153662 
49810000    1.0296234  -0.33930954      1728000    4161.6814       249050       153695 
49820000   0.93884291  -0.34872578      1728000    4162.5186       249100       153725 
49830000    1.0043224  -0.36400836      1728000    4163.6747       249150       153759 
49840000     1.020514  -0.40588428      1728000    4164.5554       249200       153790 
49850000   0.96495127  -0.37458913      1728000    4165.5234       249250       153821 
49860000     1.017841  -0.35961051      1728000    4166.3805       249300       153852 
49870000    1.0497112  -0.35495442      1728000    4167.2986       249350       153887 
49880000    1.0074611  -0.37311638      1728000    4168.1648       249400       153918 
49890000     1.025522   -0.3676429      1728000    4169.0399       249450       153952 
49900000   0.96511975  -0.34828656      1728000     4169.878       249500       153983 
49910000    1.0341653  -0.36480078      1728000    4170.6975       249550       154013 
49920000   0.96707576  -0.35385873      1728000    4171.5103       249600       154041 
49930000    1.0091817  -0.34293113      1728000    4172.3335       249650       154074 
49940000    1.0387312  -0.34203137      1728000    4173.1686       249700       154103 
49950000    0.9625214  -0.35985972      1728000    4174.0156       249750       154132 
49960000   0.99001953  -0.36228551      1728000    4174.8245       249800       154169 
49970000   0.93590657  -0.35580101      1728000    4175.6505       249850       154196 
49980000    1.0086372  -0.37862193      1728000     4176.516       249900       154228 
49990000   0.96006529  -0.35290868      1728000    4177.3611       249950       154256 
50000000     1.020957  -0.36761671      1728000    4178.2225       250000       154278 
Loop time of 4178.22 on 1 procs for 50000000 steps with 500 atoms

Performance: 10339320.113 tau/day, 11966.806 timesteps/s
99.1% CPU use with 1 MPI tasks x 1 OpenMP threads

MPI task timing breakdown:
Section |  min time  |  avg time  |  max time  |%varavg| %total
---------------------------------------------------------------
Pair    | 721.64     | 721.64     | 721.64     |   0.0 | 17.27
Bond    | 1079.2     | 1079.2     | 1079.2     |   0.0 | 25.83
Neigh   | 817.82     | 817.82     | 817.82     |   0.0 | 19.57
Comm    | 32.498     | 32.498     | 32.498     |   0.0 |  0.78
Output  | 15.158     | 15.158     | 15.158     |   0.0 |  0.36
Modify  | 1456.2     | 1456.2     | 1456.2     |   0.0 | 34.85
Other   |            | 55.67      |            |       |  1.33

Nlocal:    500 ave 500 max 500 min
Histogram: 1 0 0 0 0 0 0 0 0 0
Nghost:    0 ave 0 max 0 min
Histogram: 1 0 0 0 0 0 0 0 0 0
Neighs:    1429 ave 1429 max 1429 min
Histogram: 1 0 0 0 0 0 0 0 0 0

Total # of neighbors = 1429
Ave neighs/atom = 2.858
Ave special neighs/atom = 5.976
Neighbor list builds = 2648675
Dangerous builds = 0

################
## ULOOP    ####
################
clear
OMP_NUM_THREADS environment is not set. Defaulting to 1 thread. (../comm.cpp:87)
  using 1 OpenMP thread(s) per MPI task
variable rname delete
variable simname delete
variable folder delete
variable seed delete
variable E delete
variable RW delete
variable SimOutType delete
variable SimInType delete
variable jn delete
variable jf delete

next jbn
Increment via next: value 2 on partition 0
jump SELF #last line!!!

### If e.g. I run this on 10 partitions of 1 processor,
### and initialise the variable with 'uloop N'
### it will run 10 simulations with 'jobnumber' taking
### values 1-10. Then when a particular simulation finishes, the
### script will be run again with the next value of jobnumber,
### until N simulations have been run.
## SO ULOOP IS "SERIAL" BUT FOR SURE 10x1 PROCs ARE ALWAYS BUSY
Total wall time: 1:09:48
