LAMMPS (1 Feb 2019)
OMP_NUM_THREADS environment is not set. Defaulting to 1 thread. (../comm.cpp:87)
  using 1 OpenMP thread(s) per MPI task
####################################
####	ULOOP			####
####################################
variable jbn uloop 1  # run n simulations
variable startfrom equal 0
variable jn equal ${jbn}+${startfrom}
variable jn equal 1+${startfrom}
variable jn equal 1+0
print ${jn}
print 1
1
variable seed equal (${jn}+4)*51-2*${jbn}
variable seed equal (1+4)*51-2*${jbn}
variable seed equal (1+4)*51-2*1
variable seedr equal (${jn}+2)*22
variable seedr equal (1+2)*22

#
variable N equal 2000
timestep 0.01
variable Dt equal 100000
variable Temp equal 1.0
variable Norm equal 0.88585294441338
if "${jn} <= 2" then "variable E equal 0.7"
variable E equal 0.7
if "${jn} > 2 && ${jn} <= 4" then "variable E equal 1.5"
if "${jn} > 4 && ${jn} <= 6" then "variable E equal 2.0"
if "${jn} > 6 && ${jn} <= 8" then "variable E equal 2.5"
if "${jn} > 8 && ${jn} <= 10" then "variable E equal 3.0"
if "${jn} > 10 && ${jn} <= 12" then "variable E equal 3.5"
if "${jn} > 12 && ${jn} <= 14" then "variable E equal 4.0"
if "${jn} > 14 && ${jn} <= 16" then "variable E equal 4.5"
if "${jn} > 16 && ${jn} <= 18" then "variable E equal 5.0"

#
####################################
####	DEFINTIONS 	########
####################################
#
variable N equal 500
variable folder index RW_Dt${Dt}_E${E}
variable folder index RW_Dt100000_E${E}
variable folder index RW_Dt100000_E0.7
shell mkdir ${folder}
shell mkdir RW_Dt100000_E0.7
WARNING: Shell command 'mkdir' failed with error 'File exists' (../input.cpp:1287)
variable SimOutType index RW${jn}Dt${Dt}E${E}
variable SimOutType index RW1Dt${Dt}E${E}
variable SimOutType index RW1Dt100000E${E}
variable SimOutType index RW1Dt100000E0.7
variable rname index INIT/Poly.N${N}.dat
variable rname index INIT/Poly.N500.dat
variable simname index Poly.N${N}.${SimOutType}
variable simname index Poly.N500.${SimOutType}
variable simname index Poly.N500.RW1Dt100000E0.7
#
units lj
atom_style angle
boundary        p p p
neighbor 1.3 bin
neigh_modify every 5 delay 5 check yes
#
restart 1000000 ${folder}/Restart.neutr.${simname}.
restart 1000000 RW_Dt100000_E0.7/Restart.neutr.${simname}.
restart 1000000 RW_Dt100000_E0.7/Restart.neutr.Poly.N500.RW1Dt100000E0.7.
print ${rname}
print INIT/Poly.N500.dat
INIT/Poly.N500.dat
read_data ${rname}
read_data INIT/Poly.N500.dat
  orthogonal box = (-50 -50 -50) to (50 50 50)
  1 by 1 by 1 MPI processor grid
  reading atoms ...
  500 atoms
  scanning bonds ...
  1 = max bonds/atom
  scanning angles ...
  1 = max angles/atom
  reading bonds ...
  499 bonds
  reading angles ...
  498 angles
  2 = max # of 1-2 neighbors
  2 = max # of 1-3 neighbors
  4 = max # of 1-4 neighbors
  6 = max # of special neighbors

####################################
####	GROUPS	             #######
####################################
group blue type 1
500 atoms in group blue
group red type 2
0 atoms in group red
group grey type 3
0 atoms in group grey

change_box all x final -60 60 y final -60 60 z final -60 60 boundary f f f units box
  orthogonal box = (-60 -50 -50) to (60 50 50)
  orthogonal box = (-60 -60 -50) to (60 60 50)
  orthogonal box = (-60 -60 -60) to (60 60 60)

####################################
####	ANGLE	             #######
####################################
angle_style   cosine
angle_coeff  1 3.0  #20 sigma for realistic DNA (1 bead = 2.5 nm)

####################################
####	PAIRS	             #######
####################################
pair_style  soft 2.5
pair_modify     shift yes
pair_coeff      * * 20 1.12246152962189

variable prefactor equal ramp(0,50)
fix pushapart all adapt 1 pair soft a * * v_prefactor

####################################
####	FENE	             #######
####################################
bond_style   fene
special_bonds fene#<=== I M P O R T A N T (new command)
  2 = max # of 1-2 neighbors
  6 = max # of special neighbors
bond_coeff   1  30.0   1.6  1.0  1.0

####################################
####	FIXES	             #######
####################################
fix 1 all   nve
fix 2 all  langevin   1.0 1.0   1.0   ${seed}
fix 2 all  langevin   1.0 1.0   1.0   253

####################################
####	WALL	             #######
####################################
fix WALL all wall/lj126 xhi EDGE 1.0 1.0 1.122462048 xlo EDGE 1.0 1.0 1.122462048 yhi EDGE 1.0 1.0 1.122462048 ylo EDGE 1.0 1.0 1.122462048 zhi EDGE 1.0 1.0 1.122462048 zlo EDGE 1.0 1.0 1.122462048 units box

####################################
####	RESET TIME             #######
####################################
reset_timestep 0

####################################
####	SWAP - ATOMS         #######
####################################
##HERE I USE fix atom/swap to attempt an atom swap between types
## In theory, I don't need to do a loop as the fix does it every
## N timesteps
##FIRST Dt IS NOT SWAPPING ANYWAY!
group Polymer type 1 2 3
500 atoms in group Polymer
fix Aswap Polymer atom/swap ${Dt} ${N} ${seed} ${Temp} semi-grand yes types 1 2 3 mu 0.0 0.0 0.0
fix Aswap Polymer atom/swap 100000 ${N} ${seed} ${Temp} semi-grand yes types 1 2 3 mu 0.0 0.0 0.0
fix Aswap Polymer atom/swap 100000 500 ${seed} ${Temp} semi-grand yes types 1 2 3 mu 0.0 0.0 0.0
fix Aswap Polymer atom/swap 100000 500 253 ${Temp} semi-grand yes types 1 2 3 mu 0.0 0.0 0.0
fix Aswap Polymer atom/swap 100000 500 253 1 semi-grand yes types 1 2 3 mu 0.0 0.0 0.0
variable Swaps equal f_Aswap[2]/1.0
variable Attempts equal f_Aswap[1]/1.0

####################################
####    THERMO AND INTEGRATION
####################################
timestep 0.01
thermo 10000
thermo_style   custom   step  temp  epair vol cpu v_Attempts v_Swaps

####################################
####	EQUILIBRATION        #######
####################################
#THIS IS TO TEST
#PUT LARGER NUMBER WHEN DOING ACTUAL SIMULATIONS
run 100000
Neighbor list info ...
  update every 5 steps, delay 5 steps, check yes
  max neighbors/atom: 2000, page size: 100000
  master list distance cutoff = 2.42246
  ghost atom cutoff = 2.42246
  binsize = 1.21123, bins = 100 100 100
  1 neighbor lists, perpetual/occasional/extra = 1 0 0
  (1) pair soft, perpetual
      attributes: half, newton on
      pair build: half/bin/newton
      stencil: half/bin/3d/newton
      bin: standard
Per MPI rank memory allocation (min/avg/max) = 9.234 | 9.234 | 9.234 Mbytes
Step Temp E_pair Volume CPU v_Attempts v_Swaps 
       0            0            0      1728000            0            0            0 
   10000    1.0294079 0.0064934185      1728000    1.0336289          500          500 
   20000    0.9987672   0.01265543      1728000     1.914593          500          500 
   30000    1.0377049 0.0053002516      1728000    2.7998059          500          500 
   40000   0.96298537   0.00420477      1728000     3.648659          500          500 
   50000   0.95514074 4.5880284e-05      1728000    4.5025308          500          500 
   60000   0.97827728 4.9670865e-05      1728000     5.349771          500          500 
   70000   0.96772811 0.00068691548      1728000     6.176744          500          500 
   80000    1.0272917 0.0015087736      1728000    6.9918129          500          500 
   90000    1.0539828 0.0015163033      1728000    7.8267848          500          500 
  100000   0.98519253 0.0023363482      1728000    8.6415739          500          500 
Loop time of 8.64356 on 1 procs for 100000 steps with 500 atoms

Performance: 9995882.507 tau/day, 11569.308 timesteps/s
99.6% CPU use with 1 MPI tasks x 1 OpenMP threads

MPI task timing breakdown:
Section |  min time  |  avg time  |  max time  |%varavg| %total
---------------------------------------------------------------
Pair    | 0.5848     | 0.5848     | 0.5848     |   0.0 |  6.77
Bond    | 2.4826     | 2.4826     | 2.4826     |   0.0 | 28.72
Neigh   | 2.4657     | 2.4657     | 2.4657     |   0.0 | 28.53
Comm    | 0.11201    | 0.11201    | 0.11201    |   0.0 |  1.30
Output  | 0.02191    | 0.02191    | 0.02191    |   0.0 |  0.25
Modify  | 2.8596     | 2.8596     | 2.8596     |   0.0 | 33.08
Other   |            | 0.117      |            |       |  1.35

Nlocal:    500 ave 500 max 500 min
Histogram: 1 0 0 0 0 0 0 0 0 0
Nghost:    0 ave 0 max 0 min
Histogram: 1 0 0 0 0 0 0 0 0 0
Neighs:    847 ave 847 max 847 min
Histogram: 1 0 0 0 0 0 0 0 0 0

Total # of neighbors = 847
Ave neighs/atom = 1.694
Ave special neighs/atom = 1.996
Neighbor list builds = 4475
Dangerous builds = 0


unfix pushapart
unfix Aswap
reset_timestep 0

#######################################################
####	PAIRS -- REPULSIVE + REDS FERROMAGN 	#######
#######################################################
#ENERGYSCALE
variable Et equal ${E}/${Norm}
variable Et equal 0.7/${Norm}
variable Et equal 0.7/0.88585294441338

pair_style  lj/cut 1.8
pair_modify     shift yes
pair_coeff      * *  1.0 1.0 1.12246152962189

pair_coeff      1 1  ${Et} 1.0 1.8
pair_coeff      1 1  0.790198874897398 1.0 1.8
pair_coeff      1 2  1.0 1.0 1.12246152962189
pair_coeff      1 3  1.0 1.0 1.12246152962189

pair_coeff      2 2  ${Et} 1.0 1.8
pair_coeff      2 2  0.790198874897398 1.0 1.8
pair_coeff      2 3  1.0 1.0 1.12246152962189

pair_coeff      3 3  1.0 1.0 1.12246152962189
#######################################################


########################
## PER PRIMI VICINI   ##
########################
bond_style harmonic
special_bonds lj 1 1 1
  2 = max # of 1-2 neighbors
  2 = max # of 1-3 neighbors
  4 = max # of 1-4 neighbors
  6 = max # of special neighbors
bond_coeff 1 200 1.12246
#bond_style fene
#special_bonds fene
#bond_coeff 1 30 1.6 1.0 1.0

########################
## RECOLOR #############
########################
group Polymer type 1 2 3
500 atoms in group Polymer
variable smooth equal 10
variable dtsmooth equal ${Dt}/${smooth}
variable dtsmooth equal 100000/${smooth}
variable dtsmooth equal 100000/10
variable Nsmooth equal ${N}/${smooth}
variable Nsmooth equal 500/${smooth}
variable Nsmooth equal 500/10
fix Aswap Polymer atom/swap ${dtsmooth} ${Nsmooth} ${seedr} ${Temp} semi-grand yes types 1 2 3 mu 0.0 0.0 0.0
fix Aswap Polymer atom/swap 10000 ${Nsmooth} ${seedr} ${Temp} semi-grand yes types 1 2 3 mu 0.0 0.0 0.0
fix Aswap Polymer atom/swap 10000 50 ${seedr} ${Temp} semi-grand yes types 1 2 3 mu 0.0 0.0 0.0
fix Aswap Polymer atom/swap 10000 50 66 ${Temp} semi-grand yes types 1 2 3 mu 0.0 0.0 0.0
fix Aswap Polymer atom/swap 10000 50 66 1 semi-grand yes types 1 2 3 mu 0.0 0.0 0.0
variable Swaps equal f_Aswap[2]/1.0
variable Attempts equal f_Aswap[1]/1.0

####################################
####    DUMPS                 #######
####################################
##VMD
#dump 1 all custom 1000 ${folder}/${simname}.lammpstrj id mol type x y z
#dump_modify  1   format "%d %d %d %.5f %.5f %.5f"

##DAT
dump 2 all custom 100000 ${folder}/${simname}.* id type x y z ix iy iz
dump 2 all custom 100000 RW_Dt100000_E0.7/${simname}.* id type x y z ix iy iz
dump 2 all custom 100000 RW_Dt100000_E0.7/Poly.N500.RW1Dt100000E0.7.* id type x y z ix iy iz
#dump_modify   2   format "%d %d %.5f %.5f %.5f %d %d %d"

##CFG
#dump 3 all cfg 1000 ${folder}/CFG/${simname}.tot.*.cfg mass type xs ys zs id mol type
#dump_modify 3 element N C O Ca Xe

##XYZ
dump 4 all xyz 100000 XYZ_${simname}.xyz
dump 4 all xyz 100000 XYZ_Poly.N500.RW1Dt100000E0.7.xyz
dump_modify 4 element C O N Xe

###########################
thermo 10000
thermo_style   custom   step  temp  epair vol cpu v_Attempts v_Swaps
run 50000000
Neighbor list info ...
  update every 5 steps, delay 5 steps, check yes
  max neighbors/atom: 2000, page size: 100000
  master list distance cutoff = 3.1
  ghost atom cutoff = 3.1
  binsize = 1.55, bins = 78 78 78
  1 neighbor lists, perpetual/occasional/extra = 1 0 0
  (1) pair lj/cut, perpetual
      attributes: half, newton on
      pair build: half/bin/newton
      stencil: half/bin/3d/newton
      bin: standard
Per MPI rank memory allocation (min/avg/max) = 9.566 | 9.566 | 9.566 Mbytes
Step Temp E_pair Volume CPU v_Attempts v_Swaps 
       0   0.98519253    1.8914041      1728000            0            0            0 
   10000     1.021768   -0.2261579      1728000   0.84782195           50           39 
   20000   0.99569001  -0.22617304      1728000      1.65593          100           75 
   30000    1.0235342  -0.21205774      1728000    2.4531059          150          106 
   40000    1.0343247  -0.22345556      1728000     3.264221          200          143 
   50000   0.97696614  -0.22875404      1728000     4.054188          250          177 
   60000    1.0601243  -0.22934462      1728000    4.8482001          300          213 
   70000   0.97844523  -0.23655407      1728000    5.6323071          350          249 
   80000   0.93513094  -0.20846186      1728000    6.4162509          400          285 
   90000    1.0128942  -0.23030954      1728000    7.1992731          450          317 
  100000    1.0278561  -0.24658317      1728000    7.9953489          500          356 
  110000   0.99671343  -0.23588574      1728000     8.785269          550          393 
  120000    1.0042451  -0.23579833      1728000    9.5821891          600          434 
  130000   0.94051402  -0.24857325      1728000    10.384098          650          474 
  140000   0.98407112  -0.24952369      1728000    11.185236          700          508 
  150000    1.0305169  -0.26257662      1728000     12.00642          750          538 
  160000   0.94870652   -0.2523018      1728000    12.820602          800          572 
  170000    1.0730882  -0.25387802      1728000    13.627738          850          603 
  180000   0.96737352  -0.24679935      1728000    14.430289          900          630 
  190000    1.0080106  -0.25496644      1728000    15.234628          950          665 
  200000    1.0240115  -0.25621512      1728000     16.04512         1000          702 
  210000    1.0309082  -0.29807373      1728000    16.868414         1050          730 
  220000    1.0009219  -0.26844732      1728000    17.669856         1100          764 
  230000   0.97586639   -0.2729861      1728000    18.465214         1150          796 
  240000     1.009804  -0.27940093      1728000     19.26207         1200          832 
  250000    1.0624114   -0.2818355      1728000    20.062617         1250          860 
  260000    1.0091215  -0.28987195      1728000     20.88216         1300          891 
  270000    1.0171276  -0.29374335      1728000    21.687277         1350          923 
  280000     1.004796  -0.27759865      1728000    22.488255         1400          955 
  290000    1.0991688  -0.28559865      1728000    23.287301         1450          990 
  300000   0.96186441   -0.2875172      1728000    24.101257         1500         1023 
  310000   0.93846425  -0.29098208      1728000    24.906229         1550         1054 
  320000    1.0145204  -0.29890905      1728000    25.711279         1600         1087 
  330000    1.0165177  -0.28667329      1728000    26.511162         1650         1124 
  340000    1.0288765  -0.27011172      1728000    27.315239         1700         1159 
  350000    1.0090575  -0.27296454      1728000    28.116263         1750         1192 
  360000    1.0215461  -0.25335253      1728000     28.92831         1800         1225 
  370000   0.99016073  -0.27156208      1728000    29.728038         1850         1261 
  380000   0.95822782  -0.27217614      1728000    30.535003         1900         1295 
  390000   0.93605888  -0.24619062      1728000    31.335285         1950         1332 
  400000    1.0748196  -0.26691968      1728000    32.193245         2000         1372 
  410000   0.90717478  -0.26028798      1728000    32.991335         2050         1407 
  420000     1.037897  -0.26726803      1728000    33.787125         2100         1445 
  430000   0.99326975  -0.24074809      1728000    34.581186         2150         1479 
  440000    1.0287326  -0.24207931      1728000    35.374202         2200         1512 
  450000   0.97668376  -0.25299844      1728000    36.164237         2250         1550 
  460000   0.99091326  -0.26752375      1728000    37.065187         2300         1585 
  470000    1.0119857  -0.26449918      1728000    37.910313         2350         1621 
  480000   0.94978464  -0.24813891      1728000    38.777268         2400         1654 
  490000     1.086413  -0.27615427      1728000    39.628259         2450         1690 
  500000    1.0102998  -0.26756618      1728000    40.466106         2500         1714 
  510000     1.042377  -0.28037543      1728000    41.319918         2550         1747 
  520000   0.98742392  -0.28697899      1728000    42.170137         2600         1776 
  530000   0.99247276  -0.28615057      1728000    42.979398         2650         1810 
  540000   0.97151918  -0.30863937      1728000    43.799155         2700         1839 
  550000    1.0207657  -0.29175764      1728000    44.614339         2750         1864 
  560000   0.93697757   -0.2939136      1728000    45.431259         2800         1894 
  570000     1.095648   -0.2850679      1728000    46.284086         2850         1922 
  580000   0.99200481  -0.28715393      1728000     47.11436         2900         1954 
  590000    1.0579266  -0.29595431      1728000     47.92625         2950         1989 
  600000   0.99798458  -0.30194126      1728000    48.740151         3000         2017 
  610000   0.99077086  -0.30269094      1728000    49.756519         3050         2049 
  620000   0.96410891  -0.29849564      1728000    50.589668         3100         2079 
  630000   0.97217145  -0.29297896      1728000    51.397015         3150         2116 
  640000   0.99969673  -0.29805686      1728000     52.20917         3200         2145 
  650000   0.98545488   -0.2952114      1728000    53.014355         3250         2177 
  660000   0.99531519  -0.31824846      1728000    53.817245         3300         2208 
  670000    1.0378183  -0.32326187      1728000    54.641303         3350         2236 
  680000   0.97771124  -0.32712339      1728000    55.463273         3400         2269 
  690000   0.96487274  -0.32899785      1728000    56.269097         3450         2305 
  700000    0.9325957  -0.33148149      1728000    57.078133         3500         2336 
  710000    1.0558234  -0.31215311      1728000    57.877278         3550         2369 
  720000    1.1128889   -0.3158355      1728000    58.677335         3600         2397 
  730000   0.95962923  -0.30591196      1728000     59.48722         3650         2426 
  740000    1.0042718  -0.28291697      1728000    60.294223         3700         2456 
  750000      1.03791  -0.29538223      1728000    61.099577         3750         2491 
  760000    0.9731157  -0.27851027      1728000    61.924337         3800         2525 
  770000    1.0878743  -0.28192102      1728000    62.716393         3850         2552 
  780000   0.95368017  -0.29979419      1728000    63.510279         3900         2585 
  790000    1.0224903  -0.29616533      1728000    64.304365         3950         2622 
  800000   0.94963462  -0.26696107      1728000    65.105247         4000         2659 
  810000   0.96714851   -0.2844618      1728000    65.984863         4050         2691 
  820000   0.98571259  -0.29290316      1728000    66.849553         4100         2722 
  830000   0.94547815  -0.30001034      1728000    67.650374         4150         2751 
  840000    1.0546627  -0.26139732      1728000    68.459344         4200         2781 
  850000    1.0401189  -0.28435369      1728000    69.270322         4250         2814 
  860000   0.99764971  -0.28294006      1728000    70.091188         4300         2842 
  870000   0.98822648  -0.26450183      1728000    70.915981         4350         2881 
  880000    1.0184073  -0.29319104      1728000    71.723264         4400         2911 
  890000    1.0537028  -0.29073203      1728000      72.5283         4450         2946 
  900000      1.02777  -0.29399791      1728000    73.328342         4500         2986 
  910000     1.043277  -0.28606917      1728000    74.121272         4550         3023 
  920000   0.93458595  -0.28272451      1728000    74.932288         4600         3052 
  930000   0.95087732  -0.27751449      1728000    75.736205         4650         3086 
  940000    1.0306021  -0.28253538      1728000    76.552115         4700         3119 
  950000    1.0457108  -0.26867366      1728000     77.38226         4750         3150 
  960000   0.95507484  -0.25761292      1728000     78.17531         4800         3181 
  970000   0.95024948  -0.23964107      1728000    78.959366         4850         3220 
  980000    1.0557156  -0.26506406      1728000    79.754264         4900         3257 
  990000   0.95458292  -0.26107316      1728000    80.566223         4950         3293 
 1000000   0.97414838   -0.2903471      1728000    81.386211         5000         3326 
 1010000   0.96349908  -0.27459549      1728000    82.208222         5050         3355 
 1020000   0.96964541  -0.28473972      1728000    82.999409         5100         3389 
 1030000    1.0216882  -0.26925346      1728000     83.80619         5150         3423 
 1040000    1.0224666  -0.27698575      1728000    84.614316         5200         3454 
 1050000   0.93381577  -0.28639673      1728000    85.421368         5250         3488 
 1060000    1.0009084  -0.27696573      1728000    86.214283         5300         3519 
 1070000   0.98006148   -0.2952112      1728000    87.018219         5350         3547 
 1080000   0.99458191  -0.28754595      1728000    87.822391         5400         3584 
 1090000      1.00858  -0.29316323      1728000    88.622308         5450         3613 
 1100000    1.0192801  -0.28771271      1728000    89.440195         5500         3645 
 1110000   0.94117391  -0.28448398      1728000    90.256223         5550         3677 
 1120000   0.97635855  -0.28566024      1728000     91.06328         5600         3709 
 1130000   0.98563831  -0.29003929      1728000    91.858065         5650         3747 
 1140000   0.99350162   -0.2879533      1728000    92.653373         5700         3783 
 1150000    1.0260739  -0.27563569      1728000    93.440434         5750         3813 
 1160000   0.98184106  -0.27176019      1728000    94.233347         5800         3848 
 1170000    1.0096451  -0.27677541      1728000    95.030258         5850         3882 
 1180000   0.97355758  -0.27025132      1728000    95.817824         5900         3917 
 1190000   0.99927455   -0.2799756      1728000    96.646475         5950         3952 
 1200000   0.97962385  -0.26448321      1728000    97.454636         6000         3986 
 1210000    1.0154108  -0.26821923      1728000    98.271309         6050         4019 
 1220000   0.98306669  -0.26540719      1728000    99.062652         6100         4054 
 1230000    1.0146852  -0.28447633      1728000    99.855639         6150         4094 
 1240000   0.93237057  -0.27734015      1728000    100.65245         6200         4122 
 1250000    1.0080144   -0.2765495      1728000    101.46629         6250         4156 
 1260000   0.96611706   -0.2950012      1728000    102.25875         6300         4190 
 1270000     1.039402  -0.27514401      1728000    103.06521         6350         4225 
 1280000   0.97457145  -0.27099508      1728000    103.85963         6400         4259 
 1290000   0.93830074  -0.25858842      1728000    104.67191         6450         4290 
 1300000   0.98331167  -0.26015373      1728000    105.53339         6500         4320 
 1310000    1.0719419  -0.26051421      1728000    106.33283         6550         4349 
 1320000    1.0186402  -0.26434284      1728000     107.1324         6600         4377 
 1330000   0.95642803  -0.27044902      1728000    107.92435         6650         4405 
 1340000    0.9903027  -0.25923459      1728000    108.71837         6700         4435 
 1350000    1.0542912  -0.25627748      1728000     109.5093         6750         4466 
 1360000    1.0023918  -0.25149704      1728000    110.30445         6800         4498 
 1370000    1.0881542  -0.26652264      1728000     111.1071         6850         4532 
 1380000    1.0190951   -0.2834586      1728000    111.92013         6900         4566 
 1390000   0.98307242   -0.3255864      1728000     112.7442         6950         4596 
 1400000   0.96601617  -0.32580258      1728000    113.56342         7000         4624 
 1410000   0.96534214  -0.33078445      1728000    114.37723         7050         4654 
 1420000   0.99999761  -0.31789779      1728000    115.18638         7100         4685 
 1430000    1.0378486   -0.3162704      1728000    115.98641         7150         4714 
 1440000    1.0144125  -0.32812873      1728000    116.78335         7200         4746 
 1450000   0.99804017  -0.30748991      1728000    117.59139         7250         4777 
 1460000   0.94877854  -0.32134694      1728000    118.38584         7300         4805 
 1470000   0.96672291   -0.2957071      1728000    119.19205         7350         4835 
 1480000    1.0285794  -0.28127629      1728000    119.99648         7400         4872 
 1490000   0.99839109  -0.28638198      1728000    120.80751         7450         4902 
 1500000    0.9728136   -0.2954028      1728000    121.64848         7500         4936 
 1510000    1.0079084  -0.26551357      1728000    122.46842         7550         4968 
 1520000     1.003762  -0.26683517      1728000    123.28422         7600         5004 
 1530000    1.0114064  -0.27349998      1728000     124.0992         7650         5045 
 1540000   0.97392303  -0.25357672      1728000    124.90051         7700         5073 
 1550000   0.99856044  -0.26504107      1728000    125.70033         7750         5108 
 1560000    1.0094062   -0.2570853      1728000    126.50743         7800         5146 
 1570000    1.0119491  -0.27233364      1728000    127.31949         7850         5181 
 1580000      1.01622  -0.28374838      1728000    128.12043         7900         5212 
 1590000    1.0498489  -0.28869243      1728000    128.92119         7950         5244 
 1600000    1.0100533    -0.287859      1728000    129.72639         8000         5276 
 1610000   0.95468443  -0.27439264      1728000    130.53938         8050         5308 
 1620000   0.98402238  -0.26523404      1728000    131.33121         8100         5339 
 1630000    1.0124937  -0.26066976      1728000    132.12546         8150         5373 
 1640000   0.97459099  -0.25653354      1728000    132.91571         8200         5409 
 1650000     1.006328  -0.28319125      1728000     133.7169         8250         5440 
 1660000    1.0340962  -0.24624107      1728000    134.50648         8300         5475 
 1670000    0.9749124  -0.24176633      1728000    135.30818         8350         5508 
 1680000    1.0120676  -0.26336362      1728000    136.10549         8400         5547 
 1690000    1.0157707  -0.25023748      1728000    136.90655         8450         5579 
 1700000     1.018972  -0.25464171      1728000    137.72868         8500         5611 
 1710000   0.95982233   -0.2599631      1728000    138.53455         8550         5645 
 1720000   0.96997348  -0.25928309      1728000    139.33434         8600         5678 
 1730000    1.0162761   -0.2715723      1728000    140.13074         8650         5719 
 1740000   0.94115029  -0.27155696      1728000    140.93651         8700         5755 
 1750000    1.0084625   -0.2825101      1728000    141.74251         8750         5790 
 1760000   0.90013399  -0.25165462      1728000    142.55038         8800         5824 
 1770000    1.0242218  -0.26696504      1728000    143.35044         8850         5859 
 1780000    1.0129662   -0.2674786      1728000    144.19532         8900         5897 
 1790000    1.0560823   -0.2666882      1728000    145.00909         8950         5935 
 1800000   0.93765624  -0.24761068      1728000    145.81051         9000         5970 
 1810000     1.027479  -0.24243663      1728000    146.61184         9050         6007 
 1820000    0.9986885  -0.24035296      1728000    147.42232         9100         6037 
 1830000    0.9897919  -0.23413054      1728000    148.22252         9150         6070 
 1840000   0.99154689   -0.2375158      1728000    149.05865         9200         6103 
 1850000   0.97687426  -0.24846937      1728000    149.85345         9250         6141 
 1860000    1.0129418  -0.24523369      1728000    150.66037         9300         6176 
 1870000    1.0172428   -0.2497078      1728000    151.44739         9350         6212 
 1880000   0.99322149  -0.27033267      1728000    152.24054         9400         6242 
 1890000   0.98313294  -0.27061922      1728000    153.03331         9450         6272 
 1900000    1.0976387  -0.26564879      1728000     153.8385         9500         6303 
 1910000    1.0035576  -0.25690185      1728000    154.62639         9550         6337 
 1920000    1.0039324   -0.2720103      1728000    155.42643         9600         6374 
 1930000    1.0444222   -0.2617681      1728000    156.23153         9650         6410 
 1940000    1.0149414   -0.2548307      1728000    157.01236         9700         6448 
 1950000    1.0176955  -0.24519775      1728000    157.81638         9750         6477 
 1960000   0.99191623  -0.25075122      1728000    158.64344         9800         6510 
 1970000    1.0101734  -0.26147982      1728000    159.46055         9850         6548 
 1980000    1.0551829   -0.2490406      1728000    160.26024         9900         6582 
 1990000    1.0266367  -0.25887834      1728000    161.08122         9950         6614 
 2000000    1.0189633  -0.24143516      1728000    161.90141        10000         6646 
 2010000   0.92758302  -0.26854308      1728000    162.72252        10050         6688 
 2020000    1.0325164  -0.27825087      1728000    163.53234        10100         6727 
 2030000    1.0215564    -0.258699      1728000    164.34247        10150         6757 
 2040000   0.98118211  -0.27979331      1728000    165.13752        10200         6790 
 2050000   0.93992773  -0.26359244      1728000    165.95796        10250         6831 
 2060000    1.0003837  -0.25179431      1728000    166.78252        10300         6871 
 2070000    1.0287285  -0.26092948      1728000    167.58945        10350         6902 
 2080000     1.029049  -0.25566435      1728000    168.40063        10400         6939 
 2090000   0.92932298  -0.24385412      1728000    169.20374        10450         6972 
 2100000   0.99071805  -0.24163474      1728000    170.00939        10500         7008 
 2110000     1.006269  -0.24023354      1728000    170.79946        10550         7042 
 2120000   0.99953204  -0.25631906      1728000    171.59832        10600         7077 
 2130000    1.0365657  -0.24862245      1728000    172.39835        10650         7115 
 2140000   0.98853909  -0.23291335      1728000    173.19275        10700         7155 
 2150000    1.0567131  -0.22202524      1728000    173.98933        10750         7187 
 2160000   0.99911309  -0.22355179      1728000    174.81637        10800         7228 
 2170000    1.0609374  -0.24508987      1728000    175.65437        10850         7268 
 2180000   0.95415859  -0.25884901      1728000    176.48533        10900         7307 
 2190000   0.99656962  -0.25108621      1728000    177.29746        10950         7341 
 2200000    1.0095772  -0.25024264      1728000    178.11329        11000         7369 
 2210000   0.95408589  -0.25305284      1728000    178.91556        11050         7404 
 2220000    1.0319389  -0.25253682      1728000    179.71337        11100         7433 
 2230000    1.0231629  -0.23664279      1728000    180.53922        11150         7467 
 2240000    1.0169459  -0.24140606      1728000    181.35342        11200         7498 
 2250000   0.96465241  -0.26002165      1728000    182.16626        11250         7534 
 2260000    0.9757214  -0.26510599      1728000    182.97244        11300         7573 
 2270000   0.96872903  -0.26064073      1728000     183.7695        11350         7605 
 2280000    1.0196234  -0.28087356      1728000    184.57631        11400         7637 
 2290000   0.98675352  -0.26558144      1728000    185.38347        11450         7666 
 2300000    1.0502171  -0.23171211      1728000    186.18555        11500         7704 
 2310000   0.93785906  -0.24597734      1728000    186.98331        11550         7742 
 2320000   0.95127116  -0.23905525      1728000    187.77259        11600         7782 
 2330000   0.95568665  -0.27199031      1728000     188.5775        11650         7816 
 2340000   0.97005841  -0.25271026      1728000    189.37643        11700         7847 
 2350000    1.1007117  -0.25605926      1728000    190.16934        11750         7879 
 2360000    1.0548776  -0.24287614      1728000    191.00346        11800         7915 
 2370000   0.95970135  -0.24530046      1728000    191.81644        11850         7951 
 2380000   0.98034334  -0.23987566      1728000     192.6403        11900         7987 
 2390000   0.95923507  -0.23926802      1728000    193.47453        11950         8025 
 2400000   0.98691591  -0.25112249      1728000    194.28152        12000         8058 
 2410000    1.0074437   -0.2541308      1728000    195.11848        12050         8091 
 2420000    1.0028808  -0.26477123      1728000    195.91345        12100         8130 
 2430000   0.99315305  -0.24976471      1728000    196.71854        12150         8172 
 2440000    1.0150747   -0.2531999      1728000    197.52656        12200         8207 
 2450000    1.0369732  -0.25723401      1728000     198.3115        12250         8243 
 2460000    1.0257712  -0.24373437      1728000    199.10552        12300         8276 
 2470000   0.94790414  -0.25611074      1728000    199.90159        12350         8313 
 2480000    1.0352848  -0.24393171      1728000    200.69229        12400         8351 
 2490000    1.0287234  -0.23856976      1728000    201.48055        12450         8391 
 2500000   0.98646276  -0.25009113      1728000    202.28348        12500         8430 
 2510000   0.99827688   -0.2577409      1728000    203.07207        12550         8467 
 2520000   0.96360209  -0.24676477      1728000    203.86055        12600         8502 
 2530000   0.98047388  -0.24286819      1728000    204.65053        12650         8531 
 2540000    1.0039412   -0.2385896      1728000    205.44846        12700         8566 
 2550000   0.95244692  -0.25066329      1728000    206.24838        12750         8598 
 2560000    1.0648979  -0.25788683      1728000    207.05951        12800         8628 
 2570000    1.0248698  -0.25574556      1728000    207.87251        12850         8663 
 2580000    0.9671688  -0.25218919      1728000     208.6706        12900         8695 
 2590000   0.97991336  -0.26240055      1728000    209.47751        12950         8738 
 2600000    1.0312606  -0.25918396      1728000    210.28453        13000         8769 
 2610000   0.99700477  -0.27028985      1728000    211.08678        13050         8803 
 2620000   0.99853307  -0.25651843      1728000    211.88601        13100         8842 
 2630000    1.0161292  -0.26364653      1728000    212.68357        13150         8876 
 2640000    1.1200834  -0.25465564      1728000    213.47885        13200         8907 
 2650000    1.0146898    -0.243408      1728000    214.28351        13250         8940 
 2660000   0.99764767  -0.23487724      1728000    215.07241        13300         8974 
 2670000   0.97260245  -0.24420656      1728000    215.85961        13350         9014 
 2680000   0.99981756  -0.21807893      1728000    216.65149        13400         9051 
 2690000    1.0357332  -0.23220504      1728000    217.44748        13450         9088 
 2700000   0.99444934  -0.23703784      1728000    218.25348        13500         9125 
 2710000     1.018736  -0.23365461      1728000    219.04633        13550         9156 
 2720000   0.97924077  -0.24289732      1728000    219.84257        13600         9191 
 2730000    0.9945382  -0.22730529      1728000    220.63847        13650         9226 
 2740000   0.97089076  -0.22045963      1728000    221.42651        13700         9265 
 2750000   0.91454929  -0.22899424      1728000    222.21762        13750         9297 
 2760000    1.0324218  -0.25067669      1728000    223.01744        13800         9332 
 2770000    1.0048358  -0.24695882      1728000    223.81358        13850         9367 
 2780000   0.96032661  -0.27113917      1728000    224.61557        13900         9400 
 2790000     1.032987  -0.26254848      1728000    225.41831        13950         9428 
 2800000    1.0216211  -0.26807949      1728000    226.22635        14000         9458 
 2810000   0.97391085  -0.24297528      1728000    227.02163        14050         9495 
 2820000   0.98323941  -0.27563301      1728000    227.81843        14100         9530 
 2830000     1.048451   -0.2603906      1728000    228.62653        14150         9567 
 2840000   0.99202329  -0.25264835      1728000    229.42961        14200         9603 
 2850000   0.95964986  -0.25213843      1728000    230.22853        14250         9641 
 2860000    1.0138774  -0.25413174      1728000    231.03741        14300         9676 
 2870000    1.0222841  -0.26089163      1728000    231.86029        14350         9711 
 2880000    0.9373617  -0.25452632      1728000    232.67156        14400         9745 
 2890000   0.98874597  -0.25248171      1728000    233.45554        14450         9785 
 2900000    1.0002678  -0.27348952      1728000     234.2526        14500         9820 
 2910000   0.99432941  -0.25197456      1728000    235.04563        14550         9855 
 2920000   0.95619851  -0.25881213      1728000    235.83356        14600         9890 
 2930000    1.0306425  -0.25565368      1728000    236.63158        14650         9924 
 2940000   0.98583529  -0.24494183      1728000    237.43643        14700         9953 
 2950000    1.0101831  -0.24103247      1728000    238.24047        14750         9986 
 2960000    0.9384942  -0.26278418      1728000    239.04561        14800        10019 
 2970000    1.0167221  -0.26410128      1728000     239.8409        14850        10051 
 2980000    1.0246781   -0.2435606      1728000    240.65121        14900        10085 
 2990000   0.90734669  -0.24826651      1728000    241.45576        14950        10126 
 3000000    1.0000028  -0.23992246      1728000    242.26803        15000        10154 
 3010000   0.99658814  -0.24836727      1728000    243.06036        15050        10185 
 3020000    1.0247745  -0.25243991      1728000    243.84839        15100        10217 
 3030000    1.0226502  -0.24263516      1728000     244.6415        15150        10247 
 3040000    1.0132064  -0.24207092      1728000    245.42993        15200        10281 
 3050000   0.97573341  -0.25041933      1728000    246.22374        15250        10309 
 3060000   0.98076635  -0.25302444      1728000     247.0215        15300        10345 
 3070000    1.0537189  -0.23428832      1728000    247.82176        15350        10375 
 3080000    1.0024075  -0.25391154      1728000    248.61387        15400        10410 
 3090000   0.91678542  -0.25781586      1728000    249.41122        15450        10439 
 3100000   0.99890982  -0.25902147      1728000    250.21503        15500        10469 
 3110000   0.91674602  -0.28379512      1728000    251.01334        15550        10506 
 3120000    1.0275095  -0.28327667      1728000    251.81257        15600        10546 
 3130000    1.0078182  -0.27942268      1728000    252.61259        15650        10574 
 3140000    1.0334792  -0.27462279      1728000    253.41156        15700        10603 
 3150000    1.0226145  -0.26512504      1728000    254.20351        15750        10635 
 3160000   0.98314334  -0.28961329      1728000    255.00052        15800        10668 
 3170000   0.94176668  -0.29481643      1728000    255.79323        15850        10697 
 3180000   0.97314589  -0.29406362      1728000    256.59449        15900        10724 
 3190000   0.99212153  -0.28645931      1728000    257.39155        15950        10754 
 3200000   0.99357639   -0.2807527      1728000    258.18846        16000        10792 
 3210000    0.9594787  -0.30481698      1728000    258.99851        16050        10818 
 3220000   0.96199345  -0.28047759      1728000    259.80756        16100        10850 
 3230000    1.0427455  -0.30069102      1728000    260.60546        16150        10882 
 3240000    1.0039741  -0.29122249      1728000    261.40253        16200        10914 
 3250000    1.0774091  -0.28831043      1728000    262.20953        16250        10945 
 3260000    1.0263751  -0.30315422      1728000    263.01546        16300        10975 
 3270000    1.0401571  -0.28613497      1728000    263.82435        16350        11013 
 3280000    1.0426115   -0.2818954      1728000    264.63728        16400        11049 
 3290000    1.0206284  -0.28359008      1728000    265.43258        16450        11078 
 3300000    1.0287522  -0.28274515      1728000    266.24148        16500        11110 
 3310000    1.0307169   -0.2920114      1728000    267.04253        16550        11140 
 3320000    1.0185523   -0.2809182      1728000     267.8417        16600        11173 
 3330000   0.99306674  -0.27526521      1728000    268.64435        16650        11206 
 3340000     0.968945  -0.26498119      1728000     269.4455        16700        11239 
 3350000     1.011703  -0.26161806      1728000    270.27109        16750        11269 
 3360000   0.98727751  -0.26968239      1728000    271.09543        16800        11299 
 3370000   0.99125164  -0.28282455      1728000    271.97754        16850        11333 
 3380000   0.98815712  -0.27070351      1728000    272.83465        16900        11368 
 3390000    1.0138716  -0.27554038      1728000    273.70476        16950        11393 
 3400000     1.012426  -0.27162685      1728000    274.52549        17000        11426 
 3410000    1.0061477  -0.27741295      1728000    275.34065        17050        11455 
 3420000   0.94799397  -0.27227359      1728000    276.13185        17100        11493 
 3430000     1.075048  -0.26996219      1728000    276.92613        17150        11529 
 3440000    1.0242309  -0.26646005      1728000    277.73077        17200        11558 
 3450000   0.98193938  -0.23310724      1728000    278.54395        17250        11593 
 3460000    1.0247615  -0.26935911      1728000    279.34277        17300        11626 
 3470000    1.0183168  -0.27538767      1728000    280.14794        17350        11663 
 3480000   0.99136623  -0.29120467      1728000    280.95455        17400        11697 
 3490000   0.94920585  -0.27731729      1728000    281.75458        17450        11729 
 3500000   0.99403329  -0.29487688      1728000     282.5655        17500        11766 
 3510000   0.99364599   -0.3057847      1728000    283.37729        17550        11802 
 3520000   0.95830447  -0.29487515      1728000    284.18157        17600        11829 
 3530000    1.0132666   -0.3037572      1728000    284.97636        17650        11867 
 3540000    0.9652037   -0.2891604      1728000    285.78439        17700        11905 
 3550000    1.0040361  -0.27607628      1728000     286.5925        17750        11930 
 3560000   0.99829692  -0.29637659      1728000    287.39259        17800        11962 
 3570000    1.0779769  -0.28943983      1728000    288.19827        17850        11996 
 3580000    1.0276979   -0.2916164      1728000    288.99742        17900        12028 
 3590000     1.062244   -0.2791642      1728000    289.81757        17950        12058 
 3600000   0.95412787  -0.28460146      1728000    290.64829        18000        12093 
 3610000   0.99814222  -0.28070115      1728000    291.51373        18050        12128 
 3620000    1.0221243  -0.27535788      1728000    292.32014        18100        12163 
 3630000    1.0364276  -0.26158997      1728000    293.11678        18150        12196 
 3640000     1.027478  -0.28023677      1728000     293.9081        18200        12232 
 3650000   0.99851896  -0.25435842      1728000    294.82015        18250        12267 
 3660000    1.0129371   -0.2737643      1728000    295.64362        18300        12305 
 3670000   0.99099256  -0.26238578      1728000    296.42355        18350        12342 
 3680000    1.0662727  -0.25223796      1728000    297.20465        18400        12380 
 3690000    1.0183484  -0.25237683      1728000    297.98198        18450        12417 
 3700000    1.0313069  -0.27294419      1728000    298.78469        18500        12451 
 3710000   0.99528587  -0.27752241      1728000     299.5679        18550        12489 
 3720000   0.97935071  -0.28378454      1728000    300.37724        18600        12525 
 3730000     1.012032  -0.28730974      1728000    301.19541        18650        12559 
 3740000    1.0089761  -0.27660181      1728000    302.00358        18700        12599 
 3750000    1.0276837  -0.25749419      1728000     302.7926        18750        12637 
 3760000    1.0046023  -0.25692991      1728000    303.58972        18800        12670 
 3770000    1.0141179  -0.25194455      1728000    304.38951        18850        12700 
 3780000   0.96118397  -0.25184739      1728000    305.17479        18900        12737 
 3790000   0.97340718  -0.25133221      1728000     305.9623        18950        12773 
 3800000    1.0244698   -0.2603362      1728000    306.76654        19000        12813 
 3810000    1.0371435  -0.25448902      1728000    307.56148        19050        12848 
 3820000    1.0364596  -0.24657222      1728000    308.34855        19100        12882 
 3830000    1.0725183  -0.24490832      1728000    309.13258        19150        12921 
 3840000   0.98327962  -0.25286208      1728000    310.02007        19200        12954 
 3850000    1.0083294  -0.28107994      1728000    310.83256        19250        12988 
 3860000    0.9834455  -0.28207454      1728000    311.67753        19300        13025 
 3870000   0.92527715  -0.28062591      1728000    312.48853        19350        13066 
 3880000    1.0005349   -0.2818552      1728000    313.34245        19400        13101 
 3890000    1.0240255  -0.26551684      1728000    314.13166        19450        13131 
 3900000   0.96593996   -0.2796428      1728000    314.93615        19500        13163 
 3910000     1.025145  -0.26747766      1728000    315.72848        19550        13200 
 3920000    1.0361909  -0.26702483      1728000    316.51654        19600        13240 
 3930000    1.0594093  -0.26960324      1728000     317.3066        19650        13271 
 3940000   0.94921595  -0.27654582      1728000    318.08662        19700        13314 
 3950000    1.0201215    -0.274059      1728000    318.89258        19750        13347 
 3960000   0.91944498  -0.27216599      1728000     319.6845        19800        13381 
 3970000   0.98449723  -0.29128733      1728000    320.47053        19850        13412 
 3980000   0.98224601  -0.25890398      1728000    321.25763        19900        13446 
 3990000    1.0027582  -0.25957972      1728000    322.04563        19950        13478 
 4000000    1.0134107  -0.26904268      1728000    322.85554        20000        13508 
 4010000   0.97288084  -0.27841392      1728000    323.64176        20050        13548 
 4020000   0.97401448   -0.2608177      1728000    324.42953        20100        13580 
 4030000   0.94471042  -0.26932079      1728000     325.2256        20150        13613 
 4040000    1.0045973  -0.26358199      1728000     326.0135        20200        13646 
 4050000   0.98358128  -0.27691291      1728000    326.80345        20250        13678 
 4060000    1.0519238  -0.27866965      1728000    327.59865        20300        13717 
 4070000    0.9878319  -0.26547884      1728000     328.3887        20350        13750 
 4080000   0.97365785   -0.2740724      1728000    329.18463        20400        13781 
 4090000    0.9469801  -0.27905005      1728000    329.98669        20450        13815 
 4100000    1.0251863  -0.25733498      1728000    330.79262        20500        13851 
 4110000    1.0034605  -0.27142906      1728000    331.58158        20550        13888 
 4120000   0.94083202  -0.27628004      1728000    332.38339        20600        13920 
 4130000    1.0306469  -0.26071147      1728000    333.19342        20650        13957 
 4140000   0.98129281  -0.25601468      1728000    333.99748        20700        13989 
 4150000   0.99542579  -0.26870331      1728000    334.87231        20750        14026 
 4160000   0.95326334  -0.26009694      1728000    335.70546        20800        14067 
 4170000    1.0116922  -0.24515199      1728000    336.51661        20850        14103 
 4180000    1.0062314  -0.26679625      1728000    337.30762        20900        14142 
 4190000   0.98057853  -0.28430444      1728000    338.10479        20950        14172 
 4200000     1.004847  -0.26991762      1728000    338.91197        21000        14206 
 4210000   0.92226434  -0.25405946      1728000    339.71765        21050        14241 
 4220000   0.97944036  -0.26324178      1728000    340.50343        21100        14273 
 4230000    1.0258177  -0.25831289      1728000    341.31663        21150        14310 
 4240000   0.90757336  -0.25655431      1728000    342.12764        21200        14342 
 4250000    1.0363476  -0.26079706      1728000    342.93465        21250        14376 
 4260000   0.92097126  -0.25334921      1728000    343.74155        21300        14408 
 4270000    1.0272092  -0.25336959      1728000    344.53686        21350        14446 
 4280000    1.0292868  -0.24311814      1728000    345.32974        21400        14489 
 4290000    1.0038551  -0.23030555      1728000    346.12493        21450        14524 
 4300000    1.0099938  -0.24137391      1728000    346.92963        21500        14553 
 4310000    1.0181149   -0.2478081      1728000    347.72568        21550        14592 
 4320000    1.0561973  -0.26893794      1728000    348.51962        21600        14627 
 4330000   0.98690863  -0.26366701      1728000    349.33649        21650        14654 
 4340000    1.0703628  -0.25892851      1728000    350.14253        21700        14686 
 4350000    0.9595745   -0.2744603      1728000    350.94244        21750        14721 
 4360000   0.99699015  -0.25718793      1728000    351.73939        21800        14756 
 4370000   0.95406103  -0.27380967      1728000    352.52358        21850        14790 
 4380000   0.95727393  -0.27352596      1728000    353.31351        21900        14828 
 4390000   0.97265688  -0.27654648      1728000    354.10556        21950        14868 
 4400000    1.0199321  -0.25820495      1728000    354.90934        22000        14897 
 4410000   0.99963392  -0.26948793      1728000    355.70752        22050        14928 
 4420000   0.99687485  -0.27072712      1728000     356.4947        22100        14958 
 4430000   0.91791168  -0.26258321      1728000    357.28542        22150        14991 
 4440000    1.0596076   -0.2545305      1728000    358.06665        22200        15028 
 4450000    1.0159208  -0.26203625      1728000    358.85261        22250        15057 
 4460000    1.0194451  -0.25593859      1728000    359.64551        22300        15097 
 4470000    1.0004465  -0.24413939      1728000    360.44671        22350        15134 
 4480000   0.94728861  -0.26554274      1728000    361.23364        22400        15173 
 4490000   0.93736177  -0.26730546      1728000    362.02266        22450        15211 
 4500000    1.0119182  -0.27721558      1728000     362.8476        22500        15242 
 4510000   0.97071259  -0.27533696      1728000    363.66461        22550        15274 
 4520000    1.0074068  -0.27824197      1728000    364.47265        22600        15305 
 4530000   0.96328083  -0.28756975      1728000    365.27342        22650        15341 
 4540000   0.99843231  -0.30675725      1728000    366.07462        22700        15374 
 4550000   0.98329439  -0.30001736      1728000    366.87982        22750        15411 
 4560000   0.94354539  -0.28325008      1728000    367.68988        22800        15439 
 4570000   0.90549638  -0.29101561      1728000    368.50572        22850        15470 
 4580000   0.99381635  -0.25674525      1728000     369.3096        22900        15506 
 4590000   0.99675149  -0.25394337      1728000     370.1164        22950        15545 
 4600000    1.0229577  -0.23175879      1728000    371.01867        23000        15575 
 4610000   0.97144761  -0.24374094      1728000    371.84461        23050        15609 
 4620000    1.0176834   -0.2397554      1728000    372.63063        23100        15651 
 4630000   0.99988713  -0.25008623      1728000    373.40947        23150        15690 
 4640000   0.93961906  -0.24751888      1728000    374.20468        23200        15733 
 4650000    1.0132761  -0.23808677      1728000    375.11775        23250        15761 
 4660000   0.99308264  -0.23106312      1728000    375.91607        23300        15798 
 4670000   0.96474206  -0.24790683      1728000    376.70267        23350        15835 
 4680000    1.0182024  -0.24010197      1728000    377.49061        23400        15878 
 4690000   0.95324302  -0.24304339      1728000    378.27267        23450        15908 
 4700000   0.96858796  -0.25152168      1728000     379.0707        23500        15946 
 4710000    1.0017821  -0.25069487      1728000    379.85464        23550        15982 
 4720000   0.98456003  -0.25188944      1728000    380.64567        23600        16011 
 4730000    0.9562421  -0.25057219      1728000     381.4285        23650        16050 
 4740000   0.99906078  -0.22430707      1728000     382.2047        23700        16091 
 4750000    1.0185769  -0.25128874      1728000    382.99059        23750        16127 
 4760000   0.99513049  -0.22555165      1728000    383.79633        23800        16160 
 4770000    1.0296454  -0.21700122      1728000    384.57572        23850        16199 
 4780000   0.96125284  -0.24634923      1728000     385.3544        23900        16231 
 4790000    1.0260647  -0.23208463      1728000    386.14073        23950        16269 
 4800000   0.98578418  -0.26430539      1728000     386.9335        24000        16305 
 4810000   0.99710334  -0.26758243      1728000    387.72469        24050        16337 
 4820000     1.085269  -0.25992134      1728000    388.51859        24100        16371 
 4830000   0.97828643  -0.25491047      1728000    389.30768        24150        16400 
 4840000     1.003287  -0.25016632      1728000    390.09259        24200        16433 
 4850000    1.0086378  -0.25755265      1728000    390.87498        24250        16468 
 4860000   0.99380343  -0.25035888      1728000    391.66916        24300        16504 
 4870000   0.99741817  -0.27997699      1728000    392.47061        24350        16536 
 4880000    1.0360032  -0.28185466      1728000    393.27668        24400        16571 
 4890000    1.0275084  -0.27330521      1728000    394.09756        24450        16600 
 4900000   0.95112967  -0.27472873      1728000    394.91468        24500        16638 
 4910000    1.0391614  -0.25175912      1728000    395.72166        24550        16669 
 4920000    1.0263668  -0.24310095      1728000    396.51568        24600        16701 
 4930000    1.0661622   -0.2611876      1728000    397.32056        24650        16733 
 4940000    1.0566371  -0.24688065      1728000    398.12461        24700        16767 
 4950000    1.0144881  -0.27125942      1728000    398.91756        24750        16800 
 4960000    1.0190885    -0.271885      1728000     399.7096        24800        16835 
 4970000   0.98876683   -0.2738033      1728000    400.52062        24850        16867 
 4980000    1.0831214  -0.27056809      1728000    401.32367        24900        16898 
 4990000    1.0084076  -0.25845792      1728000    402.11971        24950        16928 
 5000000    1.0377402  -0.26493921      1728000    402.93261        25000        16964 
 5010000   0.98477939   -0.2556538      1728000    403.72071        25050        16996 
 5020000   0.97397546   -0.2620035      1728000    404.50749        25100        17030 
 5030000   0.98193457  -0.26094717      1728000    405.30074        25150        17066 
 5040000     1.022394  -0.24634523      1728000     406.0878        25200        17101 
 5050000    0.9803613   -0.2649174      1728000    406.87573        25250        17135 
 5060000    1.0442715  -0.23158219      1728000    407.67167        25300        17171 
 5070000    1.0440491  -0.22836912      1728000     408.4689        25350        17206 
 5080000    1.0036364  -0.23431669      1728000    409.27847        25400        17242 
 5090000   0.95778858  -0.24680382      1728000    410.07929        25450        17272 
 5100000    1.0084215  -0.24436081      1728000    410.88047        25500        17302 
 5110000   0.95464911  -0.25977173      1728000    411.68092        25550        17334 
 5120000    1.0381555  -0.25913951      1728000     412.4901        25600        17370 
 5130000    1.0258208  -0.26672832      1728000    413.30703        25650        17403 
 5140000   0.99716552  -0.27450248      1728000    414.11155        25700        17436 
 5150000   0.97924091  -0.26469936      1728000    414.90363        25750        17472 
 5160000    1.0255487  -0.26458798      1728000    415.69644        25800        17508 
 5170000    1.0077583  -0.26539491      1728000    416.48587        25850        17545 
 5180000   0.98354843  -0.27556129      1728000      417.285        25900        17580 
 5190000    1.0323073  -0.28167491      1728000    418.07806        25950        17615 
 5200000    1.0368704  -0.28055795      1728000    418.89167        26000        17647 
 5210000   0.94738218  -0.25769291      1728000    419.69787        26050        17676 
 5220000   0.97125335  -0.26854332      1728000    420.50659        26100        17715 
 5230000   0.97928263  -0.26498759      1728000    421.30786        26150        17746 
 5240000   0.92361183   -0.2977285      1728000    422.13104        26200        17784 
 5250000    0.9920542   -0.2967479      1728000     422.9329        26250        17817 
 5260000   0.97168456  -0.30266178      1728000    423.73392        26300        17846 
 5270000    1.0533172  -0.30277271      1728000    424.52581        26350        17883 
 5280000    1.0045851  -0.29169941      1728000    425.34516        26400        17915 
 5290000   0.94536891  -0.30099563      1728000    426.14037        26450        17945 
 5300000   0.99947421  -0.29865371      1728000    426.95557        26500        17971 
 5310000    1.0309342  -0.29687197      1728000    427.76274        26550        18005 
 5320000   0.97867645  -0.26878814      1728000    428.56783        26600        18039 
 5330000   0.98433188  -0.28392465      1728000    429.37396        26650        18073 
 5340000    1.0398875   -0.2913493      1728000    430.19277        26700        18105 
 5350000    1.0493421  -0.28123221      1728000    431.00091        26750        18138 
 5360000   0.99603624  -0.30815484      1728000    431.81155        26800        18170 
 5370000    0.9693865  -0.29325562      1728000    432.61476        26850        18199 
 5380000    1.0410909  -0.31775874      1728000    433.40911        26900        18232 
 5390000   0.98401057  -0.31899836      1728000    434.21636        26950        18260 
 5400000   0.96110769  -0.28896523      1728000    435.05681        27000        18286 
 5410000    1.0062458  -0.27622642      1728000    435.85821        27050        18321 
 5420000    1.0008213  -0.29576938      1728000    436.65829        27100        18354 
 5430000   0.97255656  -0.27809949      1728000    437.46946        27150        18387 
 5440000    1.0375916  -0.27680453      1728000    438.26265        27200        18421 
 5450000   0.93357387  -0.27210053      1728000    439.06737        27250        18454 
 5460000    1.0115634  -0.28040259      1728000     439.8795        27300        18495 
 5470000   0.99937229  -0.26203447      1728000    440.68466        27350        18531 
 5480000   0.94212331  -0.27065988      1728000    441.47986        27400        18569 
 5490000    1.0367606  -0.25953679      1728000    442.27939        27450        18604 
 5500000   0.97070931  -0.26859448      1728000    443.09581        27500        18630 
 5510000   0.99733661  -0.27439068      1728000    443.90564        27550        18657 
 5520000     1.034691  -0.27517742      1728000    444.70738        27600        18694 
 5530000    1.0235654  -0.25713863      1728000    445.52045        27650        18725 
 5540000    1.0603468  -0.26487987      1728000    446.31544        27700        18762 
 5550000    1.0774375  -0.27175877      1728000    447.10768        27750        18793 
 5560000    1.0419336  -0.28073328      1728000    447.89994        27800        18830 
 5570000    1.0107194  -0.29156719      1728000    448.69558        27850        18867 
 5580000    1.0272644  -0.28828673      1728000    449.49087        27900        18900 
 5590000    0.9926016  -0.27985719      1728000    450.28047        27950        18934 
 5600000    1.0354066  -0.27743162      1728000     451.0818        28000        18963 
 5610000   0.94921194  -0.29601178      1728000     451.8714        28050        19000 
 5620000    1.0505619  -0.29845983      1728000     452.6735        28100        19030 
 5630000    1.0134203   -0.2881364      1728000    453.47754        28150        19064 
 5640000   0.98928544  -0.28834204      1728000    454.27624        28200        19097 
 5650000    1.0456244  -0.28215678      1728000      455.064        28250        19137 
 5660000    1.0962524  -0.25758837      1728000    455.85725        28300        19175 
 5670000    1.0054355  -0.25693587      1728000    456.64953        28350        19211 
 5680000      1.02647  -0.26156233      1728000    457.43394        28400        19250 
 5690000    1.0248594  -0.27741409      1728000    458.22803        28450        19287 
 5700000    1.0047781  -0.25836956      1728000    459.02278        28500        19324 
 5710000    1.0591081  -0.27728689      1728000    459.81337        28550        19354 
 5720000    1.0117585  -0.27680662      1728000    460.60661        28600        19387 
 5730000    1.0971629  -0.28367391      1728000    461.40156        28650        19426 
 5740000    1.0437717  -0.26724468      1728000    462.18693        28700        19463 
 5750000   0.92758907  -0.26563262      1728000    462.97742        28750        19505 
 5760000   0.99213078  -0.26298865      1728000    463.76864        28800        19539 
 5770000     1.007171  -0.25436073      1728000    464.55603        28850        19571 
 5780000   0.99915833  -0.25593158      1728000    465.34323        28900        19603 
 5790000   0.98510382  -0.26244602      1728000    466.13472        28950        19643 
 5800000   0.95318941  -0.25426108      1728000    466.93246        29000        19674 
 5810000    0.9871266  -0.26597263      1728000     467.7209        29050        19709 
 5820000    1.0485736  -0.26469147      1728000    468.51668        29100        19746 
 5830000    1.0397141  -0.25836435      1728000    469.31842        29150        19780 
 5840000   0.99773898  -0.24896274      1728000    470.11502        29200        19811 
 5850000    0.9770943  -0.27463546      1728000    470.90427        29250        19846 
 5860000    0.9928714  -0.26141327      1728000    471.70345        29300        19880 
 5870000    1.0175608  -0.26504095      1728000    472.51334        29350        19915 
 5880000   0.94144979  -0.26026882      1728000    473.37576        29400        19949 
 5890000    1.0006564  -0.26540879      1728000    474.24472        29450        19984 
 5900000     1.019666  -0.29565458      1728000     475.1412        29500        20018 
 5910000    1.0351352  -0.27353079      1728000    476.19712        29550        20054 
 5920000    1.0044399  -0.28222321      1728000    477.05529        29600        20091 
 5930000    1.0139307  -0.25274007      1728000    477.87167        29650        20121 
 5940000    1.0147768  -0.24357784      1728000    478.68904        29700        20159 
 5950000   0.98295217  -0.26433624      1728000    479.50007        29750        20189 
 5960000    1.0247374  -0.24771627      1728000    480.32049        29800        20222 
 5970000      1.01349  -0.27894551      1728000    481.11989        29850        20255 
 5980000   0.97129767  -0.26148796      1728000    481.91686        29900        20292 
 5990000    1.0969601  -0.25577627      1728000    482.70597        29950        20324 
 6000000    1.0663211  -0.24837828      1728000    483.51038        30000        20360 
 6010000   0.99029876  -0.26438295      1728000     484.3017        30050        20394 
 6020000   0.94266079  -0.24918515      1728000    485.09502        30100        20430 
 6030000   0.93376051  -0.27476889      1728000    485.89868        30150        20463 
 6040000    1.0026939  -0.27532628      1728000    486.71711        30200        20497 
 6050000   0.99956406  -0.24323385      1728000    487.51267        30250        20525 
 6060000    1.0077519  -0.23706286      1728000    488.31385        30300        20560 
 6070000    1.0549946  -0.24079617      1728000    489.12652        30350        20590 
 6080000   0.93442992  -0.27057771      1728000    489.92898        30400        20625 
 6090000    1.0206121  -0.23869482      1728000    490.73071        30450        20655 
 6100000    0.9375362  -0.25172262      1728000    491.54208        30500        20687 
 6110000    1.0345047  -0.26331665      1728000    492.35321        30550        20723 
 6120000    1.0177087  -0.26090643      1728000     493.1595        30600        20752 
 6130000    1.0193103  -0.26555452      1728000    493.96778        30650        20780 
 6140000   0.97197617  -0.25889325      1728000    494.78172        30700        20813 
 6150000   0.95644752  -0.26278459      1728000     495.5779        30750        20847 
 6160000   0.96413931   -0.2737558      1728000    496.37633        30800        20882 
 6170000    1.0262401  -0.27475249      1728000    497.17896        30850        20914 
 6180000    1.0357815  -0.28370912      1728000    497.97886        30900        20941 
 6190000    1.0536495  -0.26785491      1728000     498.7776        30950        20972 
 6200000   0.97830839  -0.26299439      1728000    499.58279        31000        21003 
 6210000   0.97170238   -0.2647558      1728000    500.37301        31050        21040 
 6220000    1.0119261  -0.27186043      1728000    501.18418        31100        21075 
 6230000   0.97393857  -0.26921329      1728000    501.99552        31150        21108 
 6240000    1.0684722  -0.26267004      1728000    502.79492        31200        21141 
 6250000   0.98436546  -0.23992218      1728000    503.59952        31250        21175 
 6260000   0.96644564   -0.2482635      1728000    504.40191        31300        21207 
 6270000     1.015882  -0.25018456      1728000    505.21921        31350        21243 
 6280000    1.0350303  -0.25840186      1728000    506.03352        31400        21278 
 6290000    1.0348364  -0.25321185      1728000    506.85986        31450        21306 
 6300000    1.0598875   -0.2399766      1728000    507.67307        31500        21335 
 6310000    1.0068443  -0.23927272      1728000    508.49262        31550        21369 
 6320000    1.0385838  -0.25570541      1728000    509.27682        31600        21405 
 6330000    1.0247832  -0.23813873      1728000     510.0719        31650        21442 
 6340000   0.97644451  -0.24367594      1728000    510.86177        31700        21475 
 6350000   0.97892178  -0.25940267      1728000     511.6758        31750        21502 
 6360000     1.088929  -0.23504757      1728000    512.47364        31800        21534 
 6370000   0.98167869  -0.24491507      1728000    513.27875        31850        21574 
 6380000     1.013443  -0.26669948      1728000    514.10794        31900        21611 
 6390000   0.99678717  -0.28772332      1728000    514.92317        31950        21647 
 6400000      1.02389  -0.28040612      1728000    515.76931        32000        21681 
 6410000    1.0112409  -0.26779138      1728000    516.57749        32050        21709 
 6420000    0.9729335  -0.26670915      1728000    517.36698        32100        21739 
 6430000    1.0461007  -0.27249199      1728000    518.15799        32150        21773 
 6440000   0.99635301  -0.26689923      1728000    518.94193        32200        21811 
 6450000      1.01694  -0.28075662      1728000    519.74099        32250        21847 
 6460000    0.9425377  -0.27441767      1728000    520.53998        32300        21880 
 6470000    0.9974655  -0.27634618      1728000    521.34643        32350        21914 
 6480000    1.0744055  -0.28463662      1728000      522.156        32400        21946 
 6490000    1.0274995  -0.27498236      1728000    522.95775        32450        21982 
 6500000    1.0287738  -0.27685397      1728000    523.76706        32500        22016 
 6510000    1.0515905  -0.27444784      1728000    524.58025        32550        22051 
 6520000    1.0287926  -0.27396197      1728000    525.39053        32600        22087 
 6530000   0.96682039  -0.26533715      1728000    526.20381        32650        22116 
 6540000   0.98795493  -0.27978059      1728000    527.00464        32700        22151 
 6550000    1.0238594   -0.2796827      1728000    527.80351        32750        22187 
 6560000   0.96955822   -0.2889401      1728000    528.58824        32800        22223 
 6570000    1.0028145  -0.27658893      1728000    529.37379        32850        22255 
 6580000    1.0627566  -0.27494516      1728000    530.16202        32900        22293 
 6590000   0.99476851  -0.27554287      1728000    530.95753        32950        22329 
 6600000    1.0319818  -0.29454744      1728000    531.75283        33000        22359 
 6610000    1.0071539  -0.29822578      1728000    532.56211        33050        22395 
 6620000   0.95701405  -0.30854346      1728000     533.4196        33100        22430 
 6630000   0.99247515  -0.30540052      1728000    534.22991        33150        22463 
 6640000    1.0565211  -0.31592958      1728000    535.02284        33200        22494 
 6650000    1.0032498  -0.28494656      1728000    535.83497        33250        22526 
 6660000    1.0438296  -0.29571963      1728000      536.636        33300        22565 
 6670000   0.99141957  -0.27693811      1728000    537.43696        33350        22599 
 6680000   0.98713577  -0.28555999      1728000    538.22999        33400        22638 
 6690000    1.0036234  -0.30429755      1728000    539.04298        33450        22675 
 6700000    1.0811203  -0.30072286      1728000    539.85689        33500        22706 
 6710000    1.1132508   -0.2792602      1728000    540.64794        33550        22743 
 6720000   0.97520939  -0.28777237      1728000    541.44006        33600        22778 
 6730000    1.0441458  -0.30404781      1728000    542.23583        33650        22811 
 6740000   0.98831658  -0.31329831      1728000    543.03685        33700        22843 
 6750000    1.0012501  -0.29870816      1728000    543.85869        33750        22881 
 6760000    1.0307532  -0.30812432      1728000    544.66878        33800        22915 
 6770000   0.95613466  -0.28462451      1728000    545.48067        33850        22945 
 6780000   0.99738159  -0.28075187      1728000    546.27603        33900        22978 
 6790000    1.0162509  -0.28004939      1728000    547.07296        33950        23013 
 6800000    1.0390341  -0.28902143      1728000    547.87791        34000        23044 
 6810000    1.0104202   -0.2705504      1728000    548.67272        34050        23075 
 6820000   0.97953719  -0.28674887      1728000    549.47602        34100        23107 
 6830000   0.98504978  -0.27001308      1728000    550.26995        34150        23137 
 6840000    1.0033801  -0.27523249      1728000    551.05699        34200        23173 
 6850000     0.945269  -0.30189342      1728000    551.85608        34250        23208 
 6860000    0.9973999  -0.26962829      1728000    552.66095        34300        23240 
 6870000   0.94862451  -0.25615956      1728000    553.45202        34350        23275 
 6880000    1.0279147  -0.26141101      1728000    554.24095        34400        23307 
 6890000   0.95408125   -0.2489437      1728000      555.035        34450        23345 
 6900000   0.98157687  -0.22388316      1728000    555.83704        34500        23380 
 6910000    1.0442499  -0.23277333      1728000    556.62996        34550        23416 
 6920000   0.98142241  -0.23950003      1728000    557.42497        34600        23453 
 6930000    1.0643898  -0.24312146      1728000    558.22406        34650        23491 
 6940000    1.0096603  -0.24915061      1728000    559.02286        34700        23531 
 6950000    1.0358618  -0.27096591      1728000    559.81307        34750        23570 
 6960000   0.98993805    -0.274278      1728000    560.60495        34800        23607 
 6970000     1.016087  -0.26308572      1728000    561.39256        34850        23634 
 6980000   0.98329149   -0.2623017      1728000    562.17115        34900        23672 
 6990000    1.0589703  -0.27661458      1728000    562.96217        34950        23705 
 7000000    1.0271044  -0.27726261      1728000    563.76542        35000        23732 
 7010000    1.0188248  -0.29632128      1728000    564.55538        35050        23769 
 7020000    1.0072524    -0.287616      1728000      565.347        35100        23803 
 7030000    1.0338534  -0.29449546      1728000    566.14113        35150        23838 
 7040000   0.96901087  -0.27415214      1728000      566.934        35200        23875 
 7050000    1.0056392  -0.28808085      1728000    567.72908        35250        23909 
 7060000    1.0528778  -0.30156271      1728000       568.52        35300        23946 
 7070000   0.99405169  -0.26466563      1728000    569.30394        35350        23984 
 7080000     1.048492  -0.29400145      1728000     570.0917        35400        24022 
 7090000   0.98811922  -0.28173601      1728000    570.88604        35450        24062 
 7100000   0.96996891   -0.2934249      1728000    571.68011        35500        24097 
 7110000    1.0436685  -0.28945043      1728000    572.47096        35550        24133 
 7120000    1.0028416  -0.26845841      1728000    573.25807        35600        24168 
 7130000    1.0064071  -0.26933283      1728000    574.05689        35650        24202 
 7140000    1.0357948  -0.26869724      1728000    574.85799        35700        24235 
 7150000    1.0286593  -0.26737088      1728000      575.656        35750        24269 
 7160000    1.0021702  -0.27707217      1728000    576.45066        35800        24298 
 7170000   0.99018692  -0.28115751      1728000    577.24101        35850        24331 
 7180000    1.0723019  -0.25303601      1728000    578.04708        35900        24364 
 7190000   0.88675308  -0.27142349      1728000    578.83879        35950        24392 
 7200000   0.94627232  -0.26578311      1728000    579.64503        36000        24426 
 7210000   0.94216056  -0.25701251      1728000    580.43704        36050        24461 
 7220000   0.98150089  -0.24707067      1728000    581.22273        36100        24495 
 7230000   0.98617037  -0.25661343      1728000    582.02402        36150        24531 
 7240000   0.97363578  -0.26202765      1728000    582.81709        36200        24566 
 7250000    1.0641035  -0.22893505      1728000    583.60693        36250        24600 
 7260000   0.97173295  -0.22078267      1728000    584.38812        36300        24629 
 7270000   0.99294316  -0.23189656      1728000    585.17299        36350        24662 
 7280000   0.91177873  -0.24019716      1728000    585.96595        36400        24700 
 7290000   0.95381451  -0.24191419      1728000    586.76902        36450        24734 
 7300000   0.95908403  -0.25000003      1728000     587.5619        36500        24767 
 7310000   0.98381952  -0.24790539      1728000    588.36709        36550        24805 
 7320000   0.97243161  -0.23632702      1728000    589.16973        36600        24840 
 7330000    1.0163458    -0.229859      1728000    589.96503        36650        24873 
 7340000    1.0401594   -0.2611234      1728000    590.75106        36700        24908 
 7350000   0.93783205  -0.25059218      1728000    591.54093        36750        24945 
 7360000     1.006372  -0.25987782      1728000    592.33305        36800        24978 
 7370000    1.0284588  -0.27001306      1728000      593.117        36850        25017 
 7380000   0.98571643  -0.27908833      1728000    593.90811        36900        25053 
 7390000    1.0519818  -0.28689675      1728000    594.70609        36950        25085 
 7400000   0.94309652  -0.27495369      1728000    595.50796        37000        25125 
 7410000    1.0297507  -0.27066416      1728000    596.30237        37050        25158 
 7420000   0.95920734  -0.28773675      1728000    597.10166        37100        25190 
 7430000    1.0480023  -0.25229614      1728000    597.89974        37150        25227 
 7440000    1.0184754  -0.27577513      1728000    598.69189        37200        25260 
 7450000    0.9908707  -0.26969526      1728000    599.48788        37250        25297 
 7460000   0.96516242  -0.25927798      1728000    600.28096        37300        25329 
 7470000    0.9986728  -0.28300914      1728000    601.07104        37350        25364 
 7480000    1.0345358  -0.26662916      1728000    601.86997        37400        25395 
 7490000   0.94765965  -0.28989526      1728000    602.66397        37450        25435 
 7500000    1.0086064  -0.25945856      1728000    603.46794        37500        25472 
 7510000   0.98164469  -0.25125754      1728000      604.262        37550        25507 
 7520000   0.92177581  -0.28950674      1728000     605.0563        37600        25537 
 7530000   0.94398209  -0.28833197      1728000     605.8435        37650        25570 
 7540000    1.0081935  -0.25860503      1728000    606.63805        37700        25600 
 7550000    1.0314959  -0.27745878      1728000    607.43915        37750        25634 
 7560000   0.93648784  -0.27843922      1728000    608.23691        37800        25668 
 7570000   0.99053675   -0.2719657      1728000    609.03904        37850        25698 
 7580000    1.0373556  -0.28711115      1728000    609.84109        37900        25732 
 7590000   0.97964605  -0.27955892      1728000      610.636        37950        25769 
 7600000    1.0113013  -0.28856232      1728000    611.45094        38000        25805 
 7610000   0.98416166  -0.28409678      1728000    612.25713        38050        25836 
 7620000   0.93434535  -0.28349385      1728000    613.05187        38100        25872 
 7630000   0.98438063   -0.2722727      1728000     613.8491        38150        25906 
 7640000    1.0423404  -0.24841045      1728000     614.6411        38200        25941 
 7650000    0.9899869  -0.23921674      1728000    615.43303        38250        25975 
 7660000    1.0036072  -0.23889712      1728000    616.22012        38300        26007 
 7670000     1.001663  -0.25194973      1728000    617.00504        38350        26045 
 7680000   0.98406866  -0.25366563      1728000    617.79188        38400        26078 
 7690000    1.0067913  -0.25190583      1728000    618.57519        38450        26115 
 7700000    1.0563889  -0.24872256      1728000    619.36985        38500        26147 
[...]
47970000   0.97743943  -0.26792931      1728000    3900.7013       239850       161955 
47980000    1.0069173  -0.26421234      1728000    3901.5335       239900       161987 
47990000    1.1030618  -0.22761084      1728000    3902.3488       239950       162020 
48000000   0.99293888   -0.2459917      1728000    3903.1722       240000       162052 
48010000   0.96617079  -0.23902038      1728000    3903.9832       240050       162086 
48020000    1.0288075  -0.27158223      1728000    3904.7925       240100       162117 
48030000    1.0101994  -0.28746604      1728000    3905.6146       240150       162155 
48040000     1.009313  -0.29708154      1728000    3906.4282       240200       162187 
48050000     1.004108  -0.26614739      1728000    3907.2543       240250       162215 
48060000   0.95844021  -0.25276095      1728000    3908.0666       240300       162246 
48070000    1.0587139   -0.2544509      1728000    3908.9022       240350       162273 
48080000    1.0327057  -0.25716044      1728000    3909.7592       240400       162309 
48090000     1.003454  -0.25879815      1728000    3910.5774       240450       162345 
48100000   0.95880795  -0.25792422      1728000    3911.3932       240500       162381 
48110000    1.0247446  -0.26124188      1728000    3912.2003       240550       162413 
48120000    1.0168926  -0.26321279      1728000    3913.0052       240600       162446 
48130000   0.97809004  -0.26663962      1728000    3913.8113       240650       162475 
48140000    1.0387077  -0.25783267      1728000    3914.6163       240700       162508 
48150000   0.95030778  -0.24020851      1728000    3915.4277       240750       162544 
48160000    1.0100874  -0.27031864      1728000    3916.2294       240800       162583 
48170000   0.99278171  -0.27151965      1728000    3917.0581       240850       162615 
48180000   0.95982272   -0.2522496      1728000    3917.8844       240900       162641 
48190000   0.95013203  -0.26331371      1728000    3918.7067       240950       162676 
48200000    1.0345127  -0.24494921      1728000    3919.5246       241000       162707 
48210000   0.96407536  -0.25587636      1728000    3920.3308       241050       162738 
48220000   0.95557773  -0.27051876      1728000    3921.1356       241100       162773 
48230000     1.012797  -0.26430399      1728000    3921.9336       241150       162804 
48240000   0.97434949  -0.24760907      1728000    3922.7324       241200       162836 
48250000    1.0151411  -0.25990722      1728000    3923.5272       241250       162874 
48260000   0.98943492  -0.25298376      1728000    3924.3263       241300       162911 
48270000     1.016306  -0.24935746      1728000    3925.1283       241350       162949 
48280000    0.9705826   -0.2522991      1728000    3925.9214       241400       162979 
48290000    1.0056276  -0.26901839      1728000    3926.7093       241450       163012 
48300000   0.97485389  -0.24971267      1728000    3927.5027       241500       163047 
48310000    1.0468708  -0.26576086      1728000    3928.2993       241550       163079 
48320000     1.011563  -0.25667266      1728000    3929.1045       241600       163115 
48330000   0.97033935  -0.28516633      1728000    3929.9037       241650       163150 
48340000   0.96814455  -0.26767988      1728000    3930.7004       241700       163186 
48350000   0.92075175  -0.24510708      1728000    3931.4924       241750       163219 
48360000   0.96031327  -0.24340119      1728000    3932.2801       241800       163251 
48370000   0.99921591  -0.23796742      1728000    3933.0722       241850       163284 
48380000   0.96197503   -0.2425658      1728000    3933.8652       241900       163320 
48390000   0.96225597  -0.23628562      1728000    3934.6723       241950       163357 
48400000   0.98568668  -0.27076893      1728000    3935.4964       242000       163392 
48410000    1.0106869  -0.25110928      1728000    3936.3289       242050       163432 
48420000    1.0876465  -0.24910317      1728000    3937.1297       242100       163466 
48430000   0.99670423  -0.23885254      1728000    3937.9581       242150       163502 
48440000    1.0118677   -0.2612121      1728000    3938.7874       242200       163540 
48450000   0.98869142  -0.25776616      1728000    3939.6091       242250       163578 
48460000   0.95204852  -0.26444819      1728000    3940.4242       242300       163612 
48470000     1.034246  -0.28405165      1728000    3941.2352       242350       163641 
48480000   0.96367726  -0.30020742      1728000    3942.0392       242400       163680 
48490000   0.97196026  -0.28995017      1728000    3942.8378       242450       163710 
48500000   0.97355736  -0.31850278      1728000    3943.6613       242500       163749 
48510000   0.96442382  -0.30826435      1728000    3944.4713       242550       163779 
48520000    1.0294579    -0.290086      1728000    3945.2793       242600       163812 
48530000   0.97912582  -0.26415772      1728000    3946.0939       242650       163849 
48540000    1.0083143  -0.25883031      1728000    3946.9094       242700       163886 
48550000    1.0193709  -0.28284751      1728000    3947.7263       242750       163921 
48560000   0.99414558  -0.28042135      1728000    3948.5352       242800       163957 
48570000    1.0196724  -0.29877762      1728000    3949.3522       242850       163993 
48580000    1.0372968  -0.29869779      1728000    3950.1733       242900       164026 
48590000     0.931959  -0.30946618      1728000    3950.9884       242950       164059 
48600000    1.0087862  -0.30509939      1728000    3951.8314       243000       164099 
48610000    1.0835127  -0.31645388      1728000    3952.6474       243050       164126 
48620000   0.99661355  -0.30767361      1728000    3953.4634       243100       164169 
48630000    1.0367495  -0.30269615      1728000    3954.2654       243150       164209 
48640000    1.0233919  -0.30570396      1728000    3955.0954       243200       164237 
48650000    0.9737275   -0.2912333      1728000    3955.9083       243250       164270 
48660000    1.0195455  -0.28832251      1728000    3956.7283       243300       164299 
48670000    1.0525085  -0.28179026      1728000    3957.5366       243350       164330 
48680000   0.96837629  -0.25672447      1728000    3958.3287       243400       164365 
48690000    1.0214289  -0.27433402      1728000    3959.1267       243450       164396 
48700000   0.99388998  -0.27387621      1728000     3959.939       243500       164429 
48710000   0.96019584  -0.27731091      1728000    3960.7386       243550       164462 
48720000    0.9822762  -0.29274924      1728000    3961.5504       243600       164495 
48730000    1.0279942  -0.26876123      1728000    3962.3474       243650       164526 
48740000   0.98848735  -0.25259205      1728000    3963.1464       243700       164565 
48750000    0.9392898  -0.25100799      1728000    3963.9294       243750       164601 
48760000    1.0008499  -0.26002516      1728000    3964.7165       243800       164634 
48770000     1.005291  -0.24271005      1728000    3965.5084       243850       164672 
48780000   0.96593866  -0.25771256      1728000    3966.3035       243900       164706 
48790000      0.94095  -0.23925862      1728000    3967.0852       243950       164743 
48800000   0.94338042  -0.24544335      1728000     3967.902       244000       164779 
48810000   0.97012878  -0.25693975      1728000    3968.7232       244050       164816 
48820000    1.0082248  -0.26047032      1728000    3969.5354       244100       164853 
48830000    1.0770026  -0.25904727      1728000    3970.3463       244150       164889 
48840000     1.002004  -0.25581351      1728000    3971.1444       244200       164928 
48850000   0.95084745  -0.25019034      1728000    3971.9721       244250       164963 
48860000    1.0290467  -0.25260197      1728000    3972.7904       244300       164993 
48870000    1.0425024  -0.23158267      1728000    3973.5917       244350       165035 
48880000    1.0055901  -0.26903573      1728000    3974.4173       244400       165071 
48890000   0.98938433  -0.25017494      1728000    3975.2245       244450       165103 
48900000   0.96128573  -0.23277254      1728000    3976.0224       244500       165143 
48910000   0.98435898  -0.26072056      1728000    3976.8352       244550       165184 
48920000    1.0279431  -0.26821235      1728000    3977.6394       244600       165216 
48930000    1.0536115  -0.29187583      1728000    3978.4327       244650       165249 
48940000     1.000229  -0.28891979      1728000     3979.229       244700       165280 
48950000   0.97590546   -0.2905058      1728000    3980.0386       244750       165310 
48960000   0.97517041  -0.29554822      1728000    3980.8445       244800       165346 
48970000   0.94789035  -0.26822567      1728000    3981.6445       244850       165382 
48980000    1.0196626  -0.27220009      1728000    3982.4424       244900       165414 
48990000   0.96214077  -0.26577143      1728000    3983.2444       244950       165439 
49000000    1.0221368  -0.26846849      1728000    3984.1042       245000       165470 
49010000   0.97865065   -0.2621985      1728000    3984.9065       245050       165506 
49020000    1.0394304  -0.26880793      1728000    3985.7053       245100       165544 
49030000    1.0056228  -0.28067589      1728000    3986.5104       245150       165571 
49040000    1.0070857  -0.28061326      1728000    3987.3095       245200       165602 
49050000   0.96569654  -0.28190001      1728000    3988.1195       245250       165636 
49060000    1.0358271  -0.27113086      1728000    3988.9076       245300       165670 
49070000   0.93650744  -0.27318554      1728000    3989.6904       245350       165709 
49080000    1.0591023  -0.26808821      1728000    3990.4688       245400       165741 
49090000    1.0145261  -0.27115974      1728000    3991.2504       245450       165774 
49100000    1.0300135  -0.26414049      1728000    3992.0474       245500       165805 
49110000   0.97248111  -0.27354806      1728000    3992.8373       245550       165845 
49120000   0.96408862  -0.28238506      1728000    3993.6535       245600       165878 
49130000    1.0108159  -0.28058047      1728000    3994.4735       245650       165908 
49140000   0.91970196  -0.27118731      1728000    3995.2944       245700       165945 
49150000    1.0151884  -0.28740422      1728000    3996.1234       245750       165981 
49160000    0.9453842  -0.26654429      1728000    3996.9387       245800       166013 
49170000    1.0666126   -0.2809914      1728000    3997.7437       245850       166050 
49180000   0.99056781  -0.27101213      1728000    3998.5412       245900       166082 
49190000   0.89519782   -0.2523353      1728000    3999.3656       245950       166117 
49200000    1.0171367  -0.25123989      1728000    4000.1804       246000       166144 
49210000   0.97180582  -0.27120686      1728000    4000.9766       246050       166178 
49220000    1.0134218  -0.26501983      1728000    4001.7844       246100       166211 
49230000    1.0147116  -0.25411993      1728000    4002.6156       246150       166247 
49240000   0.98595082  -0.25319601      1728000    4003.4144       246200       166284 
49250000    1.0551164  -0.27575493      1728000    4004.2216       246250       166326 
49260000   0.95915967  -0.27018714      1728000    4005.0238       246300       166359 
49270000    1.0261971  -0.25908188      1728000    4005.8104       246350       166394 
49280000    1.0603548  -0.26863943      1728000    4006.6125       246400       166423 
49290000    0.9902504  -0.26485578      1728000    4007.4083       246450       166453 
49300000    1.0594791  -0.27232358      1728000    4008.2215       246500       166485 
49310000    1.0353135  -0.28558322      1728000    4009.0204       246550       166524 
49320000     1.041076  -0.28187843      1728000    4009.8263       246600       166556 
49330000    1.0240415  -0.27898682      1728000    4010.6464       246650       166590 
49340000    1.0106728  -0.26388108      1728000    4011.4655       246700       166624 
49350000     1.069311  -0.24908591      1728000    4012.2694       246750       166659 
49360000   0.97868923   -0.2666104      1728000    4013.0596       246800       166692 
49370000   0.97522815  -0.25486235      1728000    4013.8518       246850       166721 
49380000   0.97363125  -0.25244492      1728000    4014.6375       246900       166757 
49390000    1.0174386   -0.2484915      1728000    4015.4344       246950       166794 
49400000   0.99313913   -0.2664103      1728000    4016.2344       247000       166832 
49410000    1.0477138  -0.25741273      1728000    4017.0253       247050       166866 
49420000   0.99275304  -0.25957162      1728000    4017.8124       247100       166898 
49430000   0.98444552  -0.24842777      1728000    4018.6026       247150       166936 
49440000   0.99644777   -0.2698929      1728000    4019.3943       247200       166967 
49450000   0.97686409  -0.25435434      1728000    4020.1864       247250       167001 
49460000   0.99905428  -0.25698251      1728000    4020.9745       247300       167038 
49470000    1.0340215  -0.27210868      1728000    4021.7615       247350       167074 
49480000    1.0141403  -0.28383362      1728000    4022.5464       247400       167110 
49490000   0.91723087  -0.26846093      1728000    4023.3405       247450       167143 
49500000    1.0304228   -0.2554606      1728000    4024.1383       247500       167177 
49510000     1.058801  -0.26271175      1728000    4024.9254       247550       167207 
49520000    0.9889291  -0.26143652      1728000    4025.7105       247600       167244 
49530000   0.97103208  -0.25430806      1728000    4026.5079       247650       167279 
49540000    1.0242339  -0.27759026      1728000    4027.2957       247700       167319 
49550000    1.0167031  -0.26489051      1728000    4028.0907       247750       167355 
49560000    1.0433067  -0.23526285      1728000    4028.8834       247800       167381 
49570000    1.0415956  -0.26398721      1728000    4029.6774       247850       167416 
49580000     1.041499  -0.27493137      1728000    4030.4614       247900       167453 
49590000    0.9886668  -0.27744252      1728000    4031.2588       247950       167488 
49600000   0.95333543  -0.28753701      1728000    4032.0615       248000       167525 
49610000   0.97955923  -0.27907334      1728000    4032.8755       248050       167563 
49620000     1.031533  -0.26245117      1728000    4033.6812       248100       167594 
49630000   0.97209555  -0.26709342      1728000    4034.4964       248150       167629 
49640000   0.96003058   -0.2604783      1728000    4035.2985       248200       167663 
49650000   0.99794943  -0.26966867      1728000    4036.1034       248250       167694 
49660000    1.0385716  -0.27065995      1728000    4036.9124       248300       167729 
49670000    1.0056864  -0.26629813      1728000    4037.7094       248350       167756 
49680000    1.0011825  -0.27607496      1728000    4038.5015       248400       167784 
49690000   0.98584304  -0.25544758      1728000    4039.2865       248450       167818 
49700000   0.94327493  -0.27225017      1728000    4040.1092       248500       167854 
49710000    1.0499479  -0.28451186      1728000    4040.9014       248550       167880 
49720000    1.0275089  -0.28475192      1728000    4041.7004       248600       167915 
49730000   0.97533983  -0.26094991      1728000    4042.4876       248650       167948 
49740000    1.0054841  -0.26445176      1728000    4043.2725       248700       167974 
49750000   0.99689972  -0.28068351      1728000    4044.0606       248750       168013 
49760000    1.0283111   -0.2729134      1728000    4044.8566       248800       168049 
49770000    0.9567758  -0.26186069      1728000    4045.6584       248850       168078 
49780000    1.0018767  -0.27750618      1728000    4046.4536       248900       168112 
49790000    1.0562416  -0.29736689      1728000    4047.2514       248950       168145 
49800000    0.9915561  -0.31220205      1728000    4048.0765       249000       168174 
49810000    1.0176457  -0.32118762      1728000    4048.8934       249050       168204 
49820000   0.98620744  -0.32739598      1728000    4049.7064       249100       168238 
49830000    1.0541209  -0.29096015      1728000    4050.5501       249150       168273 
49840000    1.0350526  -0.33324299      1728000    4051.3913       249200       168303 
49850000   0.92279429  -0.31690092      1728000     4052.234       249250       168336 
49860000   0.97938824  -0.31778324      1728000    4053.0472       249300       168372 
49870000    1.0475833  -0.29879828      1728000    4053.8647       249350       168406 
49880000    1.0128437  -0.30568135      1728000    4054.6862       249400       168439 
49890000   0.99499294    -0.327356      1728000    4055.5206       249450       168471 
49900000    1.0391553  -0.31194973      1728000    4056.3704       249500       168506 
49910000   0.96948741  -0.29008882      1728000    4057.1834       249550       168537 
49920000    0.9249392  -0.28885638      1728000    4057.9914       249600       168570 
49930000     1.080268  -0.29266366      1728000    4058.7965       249650       168604 
49940000    1.0158034  -0.29047791      1728000    4059.6114       249700       168642 
49950000     1.045162  -0.28906948      1728000    4060.4391       249750       168673 
49960000     1.017583  -0.30853291      1728000    4061.2844       249800       168703 
49970000    1.0185359   -0.2857049      1728000     4062.099       249850       168738 
49980000   0.99692547  -0.29503869      1728000    4062.9154       249900       168769 
49990000    1.0083982  -0.31818095      1728000    4063.7481       249950       168804 
50000000   0.98379611  -0.27768165      1728000    4064.5813       250000       168840 
Loop time of 4064.58 on 1 procs for 50000000 steps with 500 atoms

Performance: 10628395.910 tau/day, 12301.384 timesteps/s
99.2% CPU use with 1 MPI tasks x 1 OpenMP threads

MPI task timing breakdown:
Section |  min time  |  avg time  |  max time  |%varavg| %total
---------------------------------------------------------------
Pair    | 684.71     | 684.71     | 684.71     |   0.0 | 16.85
Bond    | 1060.4     | 1060.4     | 1060.4     |   0.0 | 26.09
Neigh   | 799.11     | 799.11     | 799.11     |   0.0 | 19.66
Comm    | 33.209     | 33.209     | 33.209     |   0.0 |  0.82
Output  | 14.924     | 14.924     | 14.924     |   0.0 |  0.37
Modify  | 1419.1     | 1419.1     | 1419.1     |   0.0 | 34.91
Other   |            | 53.1       |            |       |  1.31

Nlocal:    500 ave 500 max 500 min
Histogram: 1 0 0 0 0 0 0 0 0 0
Nghost:    0 ave 0 max 0 min
Histogram: 1 0 0 0 0 0 0 0 0 0
Neighs:    1366 ave 1366 max 1366 min
Histogram: 1 0 0 0 0 0 0 0 0 0

Total # of neighbors = 1366
Ave neighs/atom = 2.732
Ave special neighs/atom = 5.976
Neighbor list builds = 2635464
Dangerous builds = 0

################
## ULOOP    ####
################
clear
OMP_NUM_THREADS environment is not set. Defaulting to 1 thread. (../comm.cpp:87)
  using 1 OpenMP thread(s) per MPI task
variable rname delete
variable simname delete
variable folder delete
variable seed delete
variable E delete
variable RW delete
variable SimOutType delete
variable SimInType delete
variable jn delete
variable jf delete

next jbn
Increment via next: value 2 on partition 0
jump SELF #last line!!!

### If e.g. I run this on 10 partitions of 1 processor,
### and initialise the variable with 'uloop N'
### it will run 10 simulations with 'jobnumber' taking
### values 1-10. Then when a particular simulation finishes, the
### script will be run again with the next value of jobnumber,
### until N simulations have been run.
## SO ULOOP IS "SERIAL" BUT FOR SURE 10x1 PROCs ARE ALWAYS BUSY
Total wall time: 1:07:54
