LAMMPS (1 Feb 2019)
OMP_NUM_THREADS environment is not set. Defaulting to 1 thread. (../comm.cpp:87)
  using 1 OpenMP thread(s) per MPI task
####################################
####	ULOOP			####
####################################
variable jbn uloop 1  # run n simulations
variable startfrom equal 0
variable jn equal ${jbn}+${startfrom}
variable jn equal 1+${startfrom}
variable jn equal 1+0
print ${jn}
print 1
1
variable seed equal (${jn}+4)*51-2*${jbn}
variable seed equal (1+4)*51-2*${jbn}
variable seed equal (1+4)*51-2*1
variable seedr equal (${jn}+2)*22
variable seedr equal (1+2)*22

#
variable N equal 2000
timestep 0.01
variable Dt equal 100000
variable Temp equal 1.0
variable Norm equal 0.88585294441338
if "${jn} <= 2" then "variable E equal 0.5"
variable E equal 0.5
if "${jn} > 2 && ${jn} <= 4" then "variable E equal 1.5"
if "${jn} > 4 && ${jn} <= 6" then "variable E equal 2.0"
if "${jn} > 6 && ${jn} <= 8" then "variable E equal 2.5"
if "${jn} > 8 && ${jn} <= 10" then "variable E equal 3.0"
if "${jn} > 10 && ${jn} <= 12" then "variable E equal 3.5"
if "${jn} > 12 && ${jn} <= 14" then "variable E equal 4.0"
if "${jn} > 14 && ${jn} <= 16" then "variable E equal 4.5"
if "${jn} > 16 && ${jn} <= 18" then "variable E equal 5.0"

#
####################################
####	DEFINTIONS 	########
####################################
#
variable N equal 500
variable folder index RW_Dt${Dt}_E${E}
variable folder index RW_Dt100000_E${E}
variable folder index RW_Dt100000_E0.5
shell mkdir ${folder}
shell mkdir RW_Dt100000_E0.5
WARNING: Shell command 'mkdir' failed with error 'File exists' (../input.cpp:1287)
variable SimOutType index RW${jn}Dt${Dt}E${E}
variable SimOutType index RW1Dt${Dt}E${E}
variable SimOutType index RW1Dt100000E${E}
variable SimOutType index RW1Dt100000E0.5
variable rname index INIT/Poly.N${N}.dat
variable rname index INIT/Poly.N500.dat
variable simname index Poly.N${N}.${SimOutType}
variable simname index Poly.N500.${SimOutType}
variable simname index Poly.N500.RW1Dt100000E0.5
#
units lj
atom_style angle
boundary        p p p
neighbor 1.3 bin
neigh_modify every 5 delay 5 check yes
#
restart 1000000 ${folder}/Restart.neutr.${simname}.
restart 1000000 RW_Dt100000_E0.5/Restart.neutr.${simname}.
restart 1000000 RW_Dt100000_E0.5/Restart.neutr.Poly.N500.RW1Dt100000E0.5.
print ${rname}
print INIT/Poly.N500.dat
INIT/Poly.N500.dat
read_data ${rname}
read_data INIT/Poly.N500.dat
  orthogonal box = (-50 -50 -50) to (50 50 50)
  1 by 1 by 1 MPI processor grid
  reading atoms ...
  500 atoms
  scanning bonds ...
  1 = max bonds/atom
  scanning angles ...
  1 = max angles/atom
  reading bonds ...
  499 bonds
  reading angles ...
  498 angles
  2 = max # of 1-2 neighbors
  2 = max # of 1-3 neighbors
  4 = max # of 1-4 neighbors
  6 = max # of special neighbors

####################################
####	GROUPS	             #######
####################################
group blue type 1
500 atoms in group blue
group red type 2
0 atoms in group red
group grey type 3
0 atoms in group grey

change_box all x final -60 60 y final -60 60 z final -60 60 boundary f f f units box
  orthogonal box = (-60 -50 -50) to (60 50 50)
  orthogonal box = (-60 -60 -50) to (60 60 50)
  orthogonal box = (-60 -60 -60) to (60 60 60)

####################################
####	ANGLE	             #######
####################################
angle_style   cosine
angle_coeff  1 3.0  #20 sigma for realistic DNA (1 bead = 2.5 nm)

####################################
####	PAIRS	             #######
####################################
pair_style  soft 2.5
pair_modify     shift yes
pair_coeff      * * 20 1.12246152962189

variable prefactor equal ramp(0,50)
fix pushapart all adapt 1 pair soft a * * v_prefactor

####################################
####	FENE	             #######
####################################
bond_style   fene
special_bonds fene#<=== I M P O R T A N T (new command)
  2 = max # of 1-2 neighbors
  6 = max # of special neighbors
bond_coeff   1  30.0   1.6  1.0  1.0

####################################
####	FIXES	             #######
####################################
fix 1 all   nve
fix 2 all  langevin   1.0 1.0   1.0   ${seed}
fix 2 all  langevin   1.0 1.0   1.0   253

####################################
####	WALL	             #######
####################################
fix WALL all wall/lj126 xhi EDGE 1.0 1.0 1.122462048 xlo EDGE 1.0 1.0 1.122462048 yhi EDGE 1.0 1.0 1.122462048 ylo EDGE 1.0 1.0 1.122462048 zhi EDGE 1.0 1.0 1.122462048 zlo EDGE 1.0 1.0 1.122462048 units box

####################################
####	RESET TIME             #######
####################################
reset_timestep 0

####################################
####	SWAP - ATOMS         #######
####################################
##HERE I USE fix atom/swap to attempt an atom swap between types
## In theory, I don't need to do a loop as the fix does it every
## N timesteps
##FIRST Dt IS NOT SWAPPING ANYWAY!
group Polymer type 1 2 3
500 atoms in group Polymer
fix Aswap Polymer atom/swap ${Dt} ${N} ${seed} ${Temp} semi-grand yes types 1 2 3 mu 0.0 0.0 0.0
fix Aswap Polymer atom/swap 100000 ${N} ${seed} ${Temp} semi-grand yes types 1 2 3 mu 0.0 0.0 0.0
fix Aswap Polymer atom/swap 100000 500 ${seed} ${Temp} semi-grand yes types 1 2 3 mu 0.0 0.0 0.0
fix Aswap Polymer atom/swap 100000 500 253 ${Temp} semi-grand yes types 1 2 3 mu 0.0 0.0 0.0
fix Aswap Polymer atom/swap 100000 500 253 1 semi-grand yes types 1 2 3 mu 0.0 0.0 0.0
variable Swaps equal f_Aswap[2]/1.0
variable Attempts equal f_Aswap[1]/1.0

####################################
####    THERMO AND INTEGRATION
####################################
timestep 0.01
thermo 10000
thermo_style   custom   step  temp  epair vol cpu v_Attempts v_Swaps

####################################
####	EQUILIBRATION        #######
####################################
#THIS IS TO TEST
#PUT LARGER NUMBER WHEN DOING ACTUAL SIMULATIONS
run 100000
Neighbor list info ...
  update every 5 steps, delay 5 steps, check yes
  max neighbors/atom: 2000, page size: 100000
  master list distance cutoff = 2.42246
  ghost atom cutoff = 2.42246
  binsize = 1.21123, bins = 100 100 100
  1 neighbor lists, perpetual/occasional/extra = 1 0 0
  (1) pair soft, perpetual
      attributes: half, newton on
      pair build: half/bin/newton
      stencil: half/bin/3d/newton
      bin: standard
Per MPI rank memory allocation (min/avg/max) = 9.234 | 9.234 | 9.234 Mbytes
Step Temp E_pair Volume CPU v_Attempts v_Swaps 
       0            0            0      1728000            0            0            0 
   10000    1.0294079 0.0064934185      1728000    1.0220709          500          500 
   20000    0.9987672   0.01265543      1728000    1.8641438          500          500 
   30000    1.0377049 0.0053002516      1728000    2.7057331          500          500 
   40000   0.96298537   0.00420477      1728000    3.5447259          500          500 
   50000   0.95514074 4.5880284e-05      1728000    4.3860219          500          500 
   60000   0.97827728 4.9670865e-05      1728000     5.237169          500          500 
   70000   0.96772811 0.00068691548      1728000    6.0719359          500          500 
   80000    1.0272917 0.0015087736      1728000    6.9156311          500          500 
   90000    1.0539828 0.0015163033      1728000     7.744458          500          500 
  100000   0.98519253 0.0023363482      1728000    8.5688419          500          500 
Loop time of 8.57082 on 1 procs for 100000 steps with 500 atoms

Performance: 10080713.378 tau/day, 11667.492 timesteps/s
99.7% CPU use with 1 MPI tasks x 1 OpenMP threads

MPI task timing breakdown:
Section |  min time  |  avg time  |  max time  |%varavg| %total
---------------------------------------------------------------
Pair    | 0.60272    | 0.60272    | 0.60272    |   0.0 |  7.03
Bond    | 2.4721     | 2.4721     | 2.4721     |   0.0 | 28.84
Neigh   | 2.4577     | 2.4577     | 2.4577     |   0.0 | 28.68
Comm    | 0.12292    | 0.12292    | 0.12292    |   0.0 |  1.43
Output  | 0.014902   | 0.014902   | 0.014902   |   0.0 |  0.17
Modify  | 2.7936     | 2.7936     | 2.7936     |   0.0 | 32.59
Other   |            | 0.1068     |            |       |  1.25

Nlocal:    500 ave 500 max 500 min
Histogram: 1 0 0 0 0 0 0 0 0 0
Nghost:    0 ave 0 max 0 min
Histogram: 1 0 0 0 0 0 0 0 0 0
Neighs:    847 ave 847 max 847 min
Histogram: 1 0 0 0 0 0 0 0 0 0

Total # of neighbors = 847
Ave neighs/atom = 1.694
Ave special neighs/atom = 1.996
Neighbor list builds = 4475
Dangerous builds = 0


unfix pushapart
unfix Aswap
reset_timestep 0

#######################################################
####	PAIRS -- REPULSIVE + REDS FERROMAGN 	#######
#######################################################
#ENERGYSCALE
variable Et equal ${E}/${Norm}
variable Et equal 0.5/${Norm}
variable Et equal 0.5/0.88585294441338

pair_style  lj/cut 1.8
pair_modify     shift yes
pair_coeff      * *  1.0 1.0 1.12246152962189

pair_coeff      1 1  ${Et} 1.0 1.8
pair_coeff      1 1  0.564427767783856 1.0 1.8
pair_coeff      1 2  1.0 1.0 1.12246152962189
pair_coeff      1 3  1.0 1.0 1.12246152962189

pair_coeff      2 2  ${Et} 1.0 1.8
pair_coeff      2 2  0.564427767783856 1.0 1.8
pair_coeff      2 3  1.0 1.0 1.12246152962189

pair_coeff      3 3  1.0 1.0 1.12246152962189
#######################################################


########################
## PER PRIMI VICINI   ##
########################
bond_style harmonic
special_bonds lj 1 1 1
  2 = max # of 1-2 neighbors
  2 = max # of 1-3 neighbors
  4 = max # of 1-4 neighbors
  6 = max # of special neighbors
bond_coeff 1 200 1.12246
#bond_style fene
#special_bonds fene
#bond_coeff 1 30 1.6 1.0 1.0

########################
## RECOLOR #############
########################
group Polymer type 1 2 3
500 atoms in group Polymer
variable smooth equal 10
variable dtsmooth equal ${Dt}/${smooth}
variable dtsmooth equal 100000/${smooth}
variable dtsmooth equal 100000/10
variable Nsmooth equal ${N}/${smooth}
variable Nsmooth equal 500/${smooth}
variable Nsmooth equal 500/10
fix Aswap Polymer atom/swap ${dtsmooth} ${Nsmooth} ${seedr} ${Temp} semi-grand yes types 1 2 3 mu 0.0 0.0 0.0
fix Aswap Polymer atom/swap 10000 ${Nsmooth} ${seedr} ${Temp} semi-grand yes types 1 2 3 mu 0.0 0.0 0.0
fix Aswap Polymer atom/swap 10000 50 ${seedr} ${Temp} semi-grand yes types 1 2 3 mu 0.0 0.0 0.0
fix Aswap Polymer atom/swap 10000 50 66 ${Temp} semi-grand yes types 1 2 3 mu 0.0 0.0 0.0
fix Aswap Polymer atom/swap 10000 50 66 1 semi-grand yes types 1 2 3 mu 0.0 0.0 0.0
variable Swaps equal f_Aswap[2]/1.0
variable Attempts equal f_Aswap[1]/1.0

####################################
####    DUMPS                 #######
####################################
##VMD
#dump 1 all custom 1000 ${folder}/${simname}.lammpstrj id mol type x y z
#dump_modify  1   format "%d %d %d %.5f %.5f %.5f"

##DAT
dump 2 all custom 100000 ${folder}/${simname}.* id type x y z ix iy iz
dump 2 all custom 100000 RW_Dt100000_E0.5/${simname}.* id type x y z ix iy iz
dump 2 all custom 100000 RW_Dt100000_E0.5/Poly.N500.RW1Dt100000E0.5.* id type x y z ix iy iz
#dump_modify   2   format "%d %d %.5f %.5f %.5f %d %d %d"

##CFG
#dump 3 all cfg 1000 ${folder}/CFG/${simname}.tot.*.cfg mass type xs ys zs id mol type
#dump_modify 3 element N C O Ca Xe

##XYZ
dump 4 all xyz 100000 XYZ_${simname}.xyz
dump 4 all xyz 100000 XYZ_Poly.N500.RW1Dt100000E0.5.xyz
dump_modify 4 element C O N Xe

###########################
thermo 10000
thermo_style   custom   step  temp  epair vol cpu v_Attempts v_Swaps
run 50000000
Neighbor list info ...
  update every 5 steps, delay 5 steps, check yes
  max neighbors/atom: 2000, page size: 100000
  master list distance cutoff = 3.1
  ghost atom cutoff = 3.1
  binsize = 1.55, bins = 78 78 78
  1 neighbor lists, perpetual/occasional/extra = 1 0 0
  (1) pair lj/cut, perpetual
      attributes: half, newton on
      pair build: half/bin/newton
      stencil: half/bin/3d/newton
      bin: standard
Per MPI rank memory allocation (min/avg/max) = 9.566 | 9.566 | 9.566 Mbytes
Step Temp E_pair Volume CPU v_Attempts v_Swaps 
       0   0.98519253    1.7889608      1728000            0            0            0 
   10000    1.0288554  -0.15222977      1728000   0.81220007           50           38 
   20000   0.98553662  -0.17506424      1728000    1.6163309          100           75 
   30000    1.0235432   -0.1508016      1728000    2.4292281          150          114 
   40000    1.0669054  -0.17500458      1728000     3.231108          200          147 
   50000    1.0328543  -0.17161313      1728000     4.030813          250          186 
   60000   0.98651435  -0.16013257      1728000    4.8436921          300          227 
   70000    1.0297345  -0.14291698      1728000    5.6562409          350          266 
   80000   0.92697735    -0.160987      1728000      6.45544          400          305 
   90000   0.97852909  -0.16436188      1728000     7.257972          450          346 
  100000    1.0071998  -0.16110378      1728000     8.067384          500          391 
  110000   0.96685064  -0.15625975      1728000     8.873558          550          429 
  120000   0.96376353  -0.16952955      1728000     9.674078          600          471 
  130000    1.0048841  -0.16464981      1728000     10.48216          650          510 
  140000    1.0156096  -0.17567851      1728000    11.278514          700          544 
  150000     1.011189  -0.16001526      1728000     12.09047          750          584 
  160000    1.0178279  -0.16919087      1728000    12.897956          800          623 
  170000    1.0400713  -0.18164883      1728000     13.69825          850          660 
  180000    0.9487544  -0.17522181      1728000    14.509914          900          693 
  190000   0.98179876  -0.16636074      1728000    15.314403          950          730 
  200000    1.0188232  -0.17987664      1728000    16.132835         1000          767 
  210000    1.0323814  -0.18682451      1728000    16.944006         1050          802 
  220000    1.0087901  -0.17569502      1728000    17.760477         1100          839 
  230000    1.0152997   -0.1497227      1728000    18.568088         1150          872 
  240000   0.94543926  -0.16782823      1728000     19.37783         1200          911 
  250000   0.96400351  -0.17915922      1728000    20.183103         1250          947 
  260000    1.0279546  -0.16823519      1728000    20.983142         1300          986 
  270000   0.96159857  -0.17163715      1728000    21.787336         1350         1025 
  280000    0.9974433  -0.17477232      1728000    22.590592         1400         1062 
  290000     1.049199  -0.17458419      1728000    23.410904         1450         1096 
  300000    1.0235382  -0.16656667      1728000    24.231546         1500         1130 
  310000     1.007005  -0.16471608      1728000    25.039775         1550         1169 
  320000    1.0447694  -0.16249918      1728000    25.853162         1600         1212 
  330000   0.98897021  -0.14880619      1728000     26.66699         1650         1245 
  340000    1.0018351  -0.16008442      1728000     27.48223         1700         1283 
  350000    1.0327313  -0.14868638      1728000    28.301742         1750         1323 
  360000   0.97674418  -0.16046873      1728000    29.105406         1800         1363 
  370000    1.0095761  -0.16428563      1728000     29.91677         1850         1399 
  380000    0.9857575   -0.1566011      1728000    30.748722         1900         1440 
  390000   0.98596161  -0.15816812      1728000    31.557904         1950         1474 
  400000    1.0647387  -0.15122396      1728000    32.370104         2000         1511 
  410000    1.0244867  -0.15604444      1728000    33.173535         2050         1550 
  420000   0.93222874   -0.1566566      1728000    33.973016         2100         1584 
  430000    1.0042652  -0.15335983      1728000    34.771142         2150         1621 
  440000     1.050682  -0.15878664      1728000    35.568966         2200         1658 
  450000    1.0204122  -0.15783175      1728000    36.387004         2250         1690 
  460000   0.99851984  -0.15193115      1728000    37.196197         2300         1728 
  470000   0.99773575  -0.15633799      1728000    37.998837         2350         1770 
  480000   0.99010371   -0.1517122      1728000    38.798327         2400         1806 
  490000   0.98397434   -0.1436398      1728000    39.589561         2450         1847 
  500000    1.0044322  -0.15499725      1728000    40.391884         2500         1882 
  510000    0.9801389  -0.15183207      1728000    41.192134         2550         1920 
  520000    1.0322406  -0.16087026      1728000     41.99634         2600         1961 
  530000   0.96937819  -0.15584025      1728000    42.794289         2650         2002 
  540000   0.99662007  -0.17570999      1728000     43.60463         2700         2037 
  550000     1.000487  -0.16361992      1728000    44.410833         2750         2067 
  560000   0.98839281  -0.17389197      1728000    45.204232         2800         2105 
  570000    1.0154256  -0.16519411      1728000    45.989147         2850         2144 
  580000   0.97749696  -0.18863791      1728000    46.795326         2900         2182 
  590000   0.99546202  -0.16304619      1728000    47.614777         2950         2217 
  600000   0.99406877  -0.15431582      1728000    48.420519         3000         2254 
  610000    1.0124198   -0.1540751      1728000    49.211071         3050         2291 
  620000    1.0248929  -0.16900947      1728000    50.003249         3100         2331 
  630000    1.1417586  -0.15466647      1728000    50.808759         3150         2373 
  640000   0.97514804  -0.15859732      1728000    51.613158         3200         2408 
  650000    0.9309874  -0.16165624      1728000    52.425096         3250         2451 
  660000   0.94912388  -0.14364579      1728000    53.235053         3300         2486 
  670000   0.99859415  -0.14806985      1728000    54.038014         3350         2524 
  680000     1.002288  -0.16043689      1728000    54.843188         3400         2559 
  690000   0.99198335  -0.15378501      1728000    55.656813         3450         2596 
  700000   0.94902555  -0.14466162      1728000    56.476043         3500         2635 
  710000    1.0510419  -0.15038496      1728000    57.282112         3550         2669 
  720000    1.0883136  -0.16565059      1728000    58.127801         3600         2707 
  730000   0.99729656  -0.16052505      1728000    58.934112         3650         2747 
  740000    1.0067953  -0.14024158      1728000    59.748347         3700         2782 
  750000    1.0392053  -0.14878503      1728000    60.547137         3750         2823 
  760000   0.91900511  -0.16316644      1728000    61.374725         3800         2865 
  770000    1.0389083  -0.15675085      1728000     62.19093         3850         2901 
  780000   0.99745642   -0.1714963      1728000     63.00197         3900         2944 
  790000   0.96971056   -0.1700849      1728000    63.809271         3950         2979 
  800000   0.87416125  -0.16879493      1728000     64.62101         4000         3016 
  810000    0.9859724  -0.18587429      1728000    65.430197         4050         3057 
  820000   0.99235373  -0.17973163      1728000    66.243076         4100         3095 
  830000    1.0192412  -0.17585789      1728000    67.041601         4150         3132 
  840000    1.0730604  -0.17119475      1728000    67.837973         4200         3166 
  850000    1.0142112  -0.17453995      1728000    68.636168         4250         3201 
  860000   0.95492576  -0.16620148      1728000    69.431865         4300         3234 
  870000    1.0092942  -0.17459357      1728000    70.221055         4350         3268 
  880000    1.0073847  -0.15816897      1728000    71.010453         4400         3306 
  890000    1.0090507   -0.1493597      1728000    71.809865         4450         3345 
  900000   0.94559311  -0.16640858      1728000    72.603107         4500         3382 
  910000    1.0539086   -0.1577844      1728000    73.398127         4550         3415 
  920000    1.0005936  -0.13596551      1728000    74.186083         4600         3455 
  930000   0.99580864  -0.15526323      1728000    74.991834         4650         3489 
  940000    1.0153447  -0.14928236      1728000    75.788246         4700         3527 
  950000    1.0467173  -0.15155167      1728000    76.587058         4750         3568 
  960000    1.0571721  -0.16049276      1728000    77.379939         4800         3605 
  970000   0.95385049  -0.13747317      1728000    78.174944         4850         3643 
  980000   0.94999919  -0.14621535      1728000    78.985118         4900         3683 
  990000    1.0025323   -0.1620162      1728000    79.795295         4950         3721 
 1000000    1.0063431  -0.15039938      1728000    80.620042         5000         3764 
 1010000   0.97982332  -0.15292053      1728000    81.436272         5050         3807 
 1020000   0.95428739  -0.13836074      1728000    82.263794         5100         3847 
 1030000    1.1256184  -0.14943392      1728000    83.108783         5150         3884 
 1040000    1.0003839  -0.15787666      1728000    83.953932         5200         3925 
 1050000    1.0241681  -0.15325172      1728000    84.783336         5250         3962 
 1060000   0.99408098  -0.13241506      1728000    85.572134         5300         4002 
 1070000    1.0047023  -0.15564474      1728000    86.398277         5350         4044 
 1080000    1.0083271  -0.14248954      1728000     87.21513         5400         4081 
 1090000   0.98343437  -0.15358477      1728000    88.020064         5450         4120 
 1100000   0.98560142  -0.16637418      1728000    88.833232         5500         4160 
 1110000   0.96943903  -0.15003489      1728000    89.632165         5550         4198 
 1120000    1.0616083  -0.15518054      1728000    90.434987         5600         4234 
 1130000    1.0072618  -0.15030098      1728000    91.240634         5650         4275 
 1140000    1.0797544  -0.17503257      1728000    92.025827         5700         4316 
 1150000    1.0284729  -0.16913078      1728000    92.811296         5750         4354 
 1160000     1.041649  -0.16854341      1728000    93.601376         5800         4395 
 1170000    1.0370312   -0.1661628      1728000    94.401194         5850         4428 
 1180000    1.0484196  -0.17215885      1728000    95.205525         5900         4464 
 1190000   0.95430309   -0.1696996      1728000    96.015828         5950         4504 
 1200000    1.0065238  -0.16782112      1728000    96.829466         6000         4542 
 1210000    1.0128635  -0.17226843      1728000    97.637928         6050         4575 
 1220000    0.9787019  -0.18387257      1728000    98.448184         6100         4609 
 1230000   0.98954901  -0.18322488      1728000    99.254346         6150         4649 
 1240000    1.0016785  -0.16214343      1728000    100.04602         6200         4680 
 1250000    1.0420956  -0.16625302      1728000    100.84437         6250         4721 
 1260000   0.99625911  -0.17758961      1728000    101.64455         6300         4759 
 1270000   0.95312573  -0.17578015      1728000    102.44488         6350         4799 
 1280000    1.0256344  -0.18026279      1728000    103.23915         6400         4840 
 1290000   0.96548478  -0.19432702      1728000     104.0341         6450         4882 
 1300000   0.96103496  -0.17571288      1728000    104.83229         6500         4922 
 1310000    1.0422458  -0.18969377      1728000    105.62561         6550         4958 
 1320000    1.0150363  -0.18427122      1728000    106.42931         6600         4989 
 1330000   0.99081299  -0.19203244      1728000    107.23684         6650         5029 
 1340000   0.99264176  -0.19609302      1728000    108.04808         6700         5067 
 1350000   0.97487874   -0.2043064      1728000    108.84921         6750         5093 
 1360000    1.0196285  -0.16166503      1728000    109.63739         6800         5137 
 1370000     1.008956  -0.17354865      1728000     110.4236         6850         5170 
 1380000   0.99736623  -0.18244704      1728000    111.22007         6900         5207 
 1390000   0.99975924  -0.18179079      1728000    112.02334         6950         5239 
 1400000   0.97276452  -0.17753425      1728000    112.82412         7000         5264 
 1410000    1.0076279  -0.17937133      1728000    113.62631         7050         5304 
 1420000    1.0061608  -0.19086003      1728000    114.41516         7100         5340 
 1430000    1.0453586  -0.18465165      1728000    115.20209         7150         5381 
 1440000   0.99288863  -0.17454704      1728000    115.98208         7200         5418 
 1450000   0.98121899  -0.15715892      1728000    116.78291         7250         5459 
 1460000    1.0077344  -0.15591625      1728000    117.57625         7300         5497 
 1470000    1.0016043  -0.14268761      1728000    118.38852         7350         5531 
 1480000    1.0058208  -0.14635589      1728000     119.1796         7400         5570 
 1490000    1.0459571  -0.15599975      1728000    119.96269         7450         5607 
 1500000   0.98445006  -0.16137065      1728000    120.76188         7500         5645 
 1510000    0.9863079  -0.15748863      1728000    121.55499         7550         5684 
 1520000   0.96385375  -0.16581144      1728000    122.36989         7600         5723 
 1530000    0.9909596  -0.15998584      1728000    123.16608         7650         5764 
 1540000    1.0137943  -0.14668534      1728000    123.97038         7700         5800 
 1550000   0.97190755   -0.1469655      1728000    124.78852         7750         5837 
 1560000   0.96446919  -0.14626534      1728000    125.59172         7800         5876 
 1570000    1.0022369  -0.14156507      1728000    126.39192         7850         5916 
 1580000   0.93505279  -0.14610183      1728000    127.22708         7900         5956 
 1590000   0.98274786  -0.13207301      1728000    128.03225         7950         5994 
 1600000   0.97808879   -0.1501521      1728000    128.83079         8000         6035 
 1610000   0.99643126  -0.13894969      1728000    129.62425         8050         6072 
 1620000    1.0218007  -0.15197032      1728000    130.40615         8100         6112 
 1630000   0.99801984  -0.15380766      1728000    131.21256         8150         6144 
 1640000    1.0068845  -0.13907558      1728000    132.02507         8200         6185 
 1650000    1.0300856  -0.13091153      1728000     132.8122         8250         6224 
 1660000    1.0322221  -0.13529733      1728000    133.59612         8300         6261 
 1670000   0.98238781  -0.15357765      1728000    134.40859         8350         6299 
 1680000    1.0008039  -0.15119556      1728000    135.21497         8400         6342 
 1690000    1.0226669  -0.15517779      1728000    136.00722         8450         6379 
 1700000    1.0256452  -0.15919696      1728000    136.81011         8500         6420 
 1710000    1.0464444  -0.15988334      1728000    137.61402         8550         6459 
 1720000   0.98810761  -0.14277726      1728000    138.40327         8600         6496 
 1730000    1.0434837  -0.14357653      1728000    139.19377         8650         6541 
 1740000   0.96662833  -0.13680402      1728000     139.9831         8700         6583 
 1750000   0.98775739  -0.14473486      1728000    140.78699         8750         6622 
 1760000    0.9949994  -0.15559754      1728000    141.59213         8800         6659 
 1770000    1.0306668  -0.14980944      1728000    142.38776         8850         6699 
 1780000    1.0659545  -0.14686185      1728000    143.19195         8900         6737 
 1790000   0.92584881  -0.14700426      1728000    143.99311         8950         6779 
 1800000   0.95775375  -0.15485518      1728000    144.80003         9000         6818 
 1810000    1.0158489  -0.14919271      1728000    145.59213         9050         6859 
 1820000   0.99267231  -0.16557288      1728000    146.37434         9100         6901 
 1830000   0.99039649  -0.17281297      1728000    147.18413         9150         6937 
 1840000    1.0564871  -0.16249574      1728000    147.97942         9200         6971 
 1850000    1.0107603  -0.14988941      1728000    148.76115         9250         7007 
 1860000    1.0168922  -0.15475071      1728000    149.54906         9300         7048 
 1870000     1.048885  -0.15544322      1728000    150.36027         9350         7088 
 1880000    1.0155536  -0.15582176      1728000    151.15556         9400         7126 
 1890000    0.9845523  -0.16506155      1728000    151.96376         9450         7160 
 1900000   0.95547454  -0.15889051      1728000    152.78214         9500         7196 
 1910000     1.023689  -0.16512388      1728000    153.58135         9550         7232 
 1920000   0.98384906  -0.16361496      1728000    154.37856         9600         7272 
 1930000    1.0236131  -0.15747153      1728000     155.1622         9650         7311 
 1940000    1.0088271  -0.15474005      1728000    155.97839         9700         7354 
 1950000    0.9605358  -0.15219369      1728000    156.78463         9750         7389 
 1960000    1.0646726  -0.15565609      1728000    157.58337         9800         7424 
 1970000   0.99272993  -0.14457908      1728000    158.37912         9850         7458 
 1980000    1.0253775  -0.13566937      1728000    159.18112         9900         7497 
 1990000    1.0919514  -0.16301601      1728000    159.97892         9950         7537 
 2000000    1.0449971  -0.14136649      1728000    160.79244        10000         7579 
 2010000   0.98610488  -0.13193212      1728000    161.58413        10050         7621 
 2020000    1.0926975  -0.12824738      1728000    162.38527        10100         7657 
 2030000   0.97658109  -0.13107833      1728000    163.17871        10150         7696 
 2040000    1.0482253  -0.14159883      1728000    163.96492        10200         7736 
 2050000    1.0093075  -0.12642541      1728000    164.76222        10250         7778 
 2060000    1.0569892  -0.13874103      1728000    165.55514        10300         7817 
 2070000    1.0607691  -0.11852449      1728000    166.34787        10350         7855 
 2080000   0.98939974  -0.12224501      1728000    167.14629        10400         7899 
 2090000   0.99902758  -0.14278573      1728000    167.92595        10450         7938 
 2100000    1.0444573  -0.13936865      1728000    168.71099        10500         7969 
 2110000    1.0718182  -0.13773753      1728000    169.50916        10550         8011 
 2120000    1.0574478  -0.14492992      1728000    170.30335        10600         8053 
 2130000    1.0503933  -0.13861299      1728000    171.15947        10650         8092 
 2140000    1.0189636  -0.15482911      1728000    171.95075        10700         8138 
 2150000   0.95641651  -0.14153065      1728000    172.73111        10750         8177 
 2160000     1.024378  -0.14121277      1728000    173.53123        10800         8218 
 2170000    1.0195401  -0.12880018      1728000    174.36078        10850         8256 
 2180000    1.0197215  -0.13747995      1728000    175.21801        10900         8294 
 2190000   0.97792155   -0.1344972      1728000    176.07025        10950         8328 
 2200000    1.0142947   -0.1499315      1728000    176.88703        11000         8364 
 2210000   0.95929351  -0.16070106      1728000    177.68415        11050         8406 
 2220000    1.0177125   -0.1628764      1728000    178.47478        11100         8439 
 2230000   0.97492056  -0.15687325      1728000    179.27916        11150         8478 
 2240000   0.96340663  -0.14942177      1728000    180.06529        11200         8514 
 2250000   0.94482655  -0.14330648      1728000    180.85117        11250         8552 
 2260000   0.96468116  -0.14945272      1728000    181.63784        11300         8593 
 2270000    1.0254088   -0.1453519      1728000    182.41914        11350         8637 
 2280000    1.0048354  -0.14988995      1728000    183.20507        11400         8679 
 2290000    0.9340624   -0.1535191      1728000     183.9991        11450         8724 
 2300000   0.94388927  -0.16192026      1728000    184.81503        11500         8763 
 2310000     1.034499  -0.15632382      1728000    185.65324        11550         8806 
 2320000    1.0077839  -0.17119226      1728000    186.55929        11600         8837 
 2330000   0.96643582  -0.17844651      1728000    187.50832        11650         8879 
 2340000   0.97075245  -0.17585716      1728000    188.41195        11700         8917 
 2350000   0.94835779  -0.15578705      1728000    189.27707        11750         8953 
 2360000    1.0847712  -0.14736208      1728000    190.09223        11800         8994 
 2370000   0.96906463  -0.16013542      1728000    190.91153        11850         9031 
 2380000    1.0006767  -0.15064429      1728000    191.71818        11900         9072 
 2390000   0.99679147  -0.15166169      1728000    192.52841        11950         9107 
 2400000   0.96152913  -0.16393354      1728000     193.3453        12000         9147 
 2410000   0.98878293  -0.16197949      1728000    194.15227        12050         9184 
 2420000   0.97295389  -0.14964278      1728000    194.96025        12100         9220 
 2430000    1.0722595  -0.15163486      1728000    195.76118        12150         9261 
 2440000    1.0097819  -0.16562425      1728000    196.58878        12200         9300 
 2450000   0.97558505  -0.16258332      1728000      197.397        12250         9342 
 2460000    1.0659611  -0.16248442      1728000    198.20715        12300         9382 
 2470000   0.97672953  -0.16180001      1728000    199.01921        12350         9420 
 2480000    1.0247308  -0.16501485      1728000    199.84507        12400         9456 
 2490000   0.94119859  -0.15725472      1728000    200.64814        12450         9498 
 2500000    1.0139618  -0.13958957      1728000    201.46511        12500         9539 
 2510000     1.022199  -0.15242106      1728000    202.27025        12550         9573 
 2520000     1.015287   -0.1508154      1728000    203.08311        12600         9613 
 2530000    1.0021149  -0.16321977      1728000    203.89034        12650         9650 
 2540000    1.0084635  -0.16265783      1728000    204.70215        12700         9688 
 2550000   0.99323553  -0.14942176      1728000    205.51014        12750         9726 
 2560000    1.0401085  -0.14855958      1728000    206.31236        12800         9765 
 2570000    1.0392404  -0.16365468      1728000    207.10828        12850         9805 
 2580000   0.99904989  -0.16052928      1728000    207.91527        12900         9843 
 2590000    1.0059059  -0.16387504      1728000    208.71804        12950         9879 
 2600000   0.95722109  -0.13902642      1728000    209.54563        13000         9918 
 2610000    1.0820113  -0.15140393      1728000    210.36979        13050         9962 
 2620000   0.97788895  -0.15682131      1728000     211.1981        13100         9998 
 2630000   0.97485617  -0.14962763      1728000    212.05188        13150        10038 
 2640000     1.006245  -0.15651946      1728000    212.88107        13200        10071 
 2650000    1.0268173  -0.13842888      1728000    213.69892        13250        10109 
 2660000   0.97993035  -0.14620084      1728000    214.51337        13300        10146 
 2670000   0.94392347  -0.13725666      1728000    215.31756        13350        10184 
 2680000    1.0354926  -0.14183614      1728000    216.13499        13400        10224 
 2690000   0.93727965  -0.14952175      1728000    216.96116        13450        10264 
 2700000    1.0137477  -0.13957864      1728000    217.81128        13500        10299 
 2710000   0.98998504  -0.13841825      1728000    218.62946        13550        10338 
 2720000   0.93486337  -0.15711845      1728000    219.44086        13600        10374 
 2730000    1.1195911  -0.13626229      1728000    220.29799        13650        10418 
 2740000    1.0175014  -0.14147565      1728000    221.09819        13700        10461 
 2750000    1.0101522  -0.13365522      1728000    221.90331        13750        10498 
 2760000    1.0036597  -0.15078311      1728000    222.71453        13800        10535 
 2770000    1.0015092  -0.14410177      1728000    223.52246        13850        10575 
 2780000    1.0391808  -0.14432928      1728000     224.3257        13900        10608 
 2790000    1.0261394  -0.12473059      1728000    225.14387        13950        10645 
 2800000   0.98893501  -0.13748016      1728000    225.96408        14000        10679 
 2810000   0.97476927  -0.14805034      1728000    226.76936        14050        10715 
 2820000   0.99606466  -0.14279157      1728000    227.56764        14100        10758 
 2830000    1.0060342  -0.15366963      1728000    228.37191        14150        10796 
 2840000   0.97948137  -0.13830289      1728000    229.18021        14200        10836 
 2850000   0.97977689  -0.13325601      1728000    229.98545        14250        10870 
 2860000    1.0126585  -0.13725418      1728000    230.78969        14300        10915 
 2870000    1.0165423  -0.13757408      1728000    231.60436        14350        10958 
 2880000    1.0155316  -0.14215635      1728000    232.40752        14400        10997 
 2890000    1.0411208  -0.16522907      1728000     233.2152        14450        11033 
 2900000   0.99415539  -0.16379671      1728000    234.02712        14500        11073 
 2910000    1.0105744  -0.15098269      1728000    234.84042        14550        11109 
 2920000    1.0001371  -0.17201344      1728000    235.65614        14600        11150 
 2930000   0.95838412   -0.1449557      1728000    236.46247        14650        11189 
 2940000   0.93015882  -0.14453488      1728000    237.28242        14700        11232 
 2950000    1.0243611  -0.15016684      1728000    238.09223        14750        11274 
 2960000   0.98602653  -0.15152922      1728000     238.9074        14800        11313 
 2970000    1.0273133  -0.14400816      1728000    239.70858        14850        11354 
 2980000    1.0056449  -0.14323749      1728000    240.51841        14900        11394 
 2990000   0.96609167  -0.15071881      1728000    241.36563        14950        11434 
 3000000    0.9705842  -0.15284693      1728000    242.19251        15000        11472 
 3010000   0.95491601  -0.13959739      1728000    243.02768        15050        11510 
 3020000    1.0116056  -0.14315112      1728000    243.83952        15100        11554 
 3030000   0.98867997  -0.14915109      1728000    244.64974        15150        11593 
 3040000    1.0178524  -0.16389735      1728000    245.46589        15200        11630 
 3050000   0.90214427  -0.16023572      1728000    246.28317        15250        11667 
 3060000   0.95877429  -0.16502782      1728000    247.10532        15300        11702 
 3070000    1.0032332  -0.16908781      1728000    247.91952        15350        11742 
 3080000   0.99217935  -0.16361913      1728000    248.73627        15400        11778 
 3090000    1.0169474  -0.14954746      1728000    249.56934        15450        11820 
 3100000     1.021166  -0.15603213      1728000    250.39944        15500        11860 
 3110000    0.9656519  -0.16119596      1728000    251.22827        15550        11896 
 3120000   0.97187156  -0.14193338      1728000    252.05849        15600        11929 
 3130000    1.0078552  -0.16395357      1728000    252.87345        15650        11970 
 3140000    1.0209931  -0.15768053      1728000    253.68403        15700        12009 
 3150000    1.0246619  -0.14659085      1728000    254.49722        15750        12049 
 3160000   0.96173256  -0.16392779      1728000    255.31037        15800        12085 
 3170000    0.9675279  -0.15478084      1728000    256.13154        15850        12121 
 3180000   0.99107196  -0.15984546      1728000     256.9387        15900        12155 
 3190000   0.95252322  -0.16753687      1728000    257.74262        15950        12195 
 3200000    0.9485662  -0.16122257      1728000    258.56734        16000        12235 
 3210000   0.99824989   -0.1482416      1728000     259.3875        16050        12273 
 3220000    1.0318011  -0.16743454      1728000    260.20866        16100        12312 
 3230000   0.99711829  -0.17553693      1728000    261.04781        16150        12347 
 3240000    1.0454445  -0.16593133      1728000    261.86697        16200        12380 
 3250000    1.0519315  -0.16437232      1728000    262.68723        16250        12413 
 3260000   0.98643779  -0.17624795      1728000    263.50252        16300        12451 
 3270000   0.95536218  -0.16082922      1728000    264.31367        16350        12489 
 3280000   0.97657048  -0.16093851      1728000      265.121        16400        12529 
 3290000     1.003096  -0.16300399      1728000    265.96876        16450        12562 
 3300000    1.0492974  -0.14315511      1728000    266.79608        16500        12603 
 3310000    1.0335935  -0.13776815      1728000    267.60542        16550        12639 
 3320000   0.91316695   -0.1236655      1728000    268.40706        16600        12680 
 3330000    1.0396224  -0.11701933      1728000    269.23028        16650        12722 
 3340000    1.0121155  -0.13697746      1728000    270.04433        16700        12762 
 3350000   0.97069541  -0.12858347      1728000    270.84973        16750        12804 
 3360000   0.96281192  -0.11871161      1728000    271.65182        16800        12846 
 3370000    1.0458246  -0.11982239      1728000    272.45809        16850        12883 
 3380000    1.0493107  -0.13204956      1728000    273.26126        16900        12921 
 3390000    1.0060953  -0.13216479      1728000    274.07542        16950        12957 
 3400000    1.0279114   -0.1325071      1728000    274.88861        17000        12997 
 3410000     1.005585  -0.13837836      1728000    275.70378        17050        13034 
 3420000    1.0131127  -0.12259749      1728000    276.50801        17100        13071 
 3430000   0.98788026  -0.13706135      1728000    277.33622        17150        13107 
 3440000   0.96357332  -0.13485751      1728000    278.19535        17200        13148 
 3450000   0.97218703  -0.14301199      1728000    279.03032        17250        13182 
 3460000    1.0740794   -0.1364572      1728000     279.8886        17300        13222 
 3470000   0.97718118  -0.13955169      1728000     280.7065        17350        13261 
 3480000   0.98160586  -0.13663849      1728000    281.52362        17400        13298 
 3490000   0.95552986  -0.14500817      1728000    282.37275        17450        13339 
 3500000   0.94658854  -0.14585402      1728000    283.21838        17500        13378 
 3510000     0.988062  -0.14476837      1728000    284.03171        17550        13416 
 3520000    0.9803481  -0.15467129      1728000    284.85086        17600        13448 
 3530000    1.0042573  -0.14594115      1728000     285.6702        17650        13483 
 3540000   0.95859238  -0.15382107      1728000    286.48266        17700        13521 
 3550000    1.0420186  -0.14721263      1728000    287.29783        17750        13551 
 3560000    1.0036698  -0.15257443      1728000    288.10909        17800        13592 
 3570000    1.0033737  -0.14101785      1728000    288.91725        17850        13637 
 3580000   0.99924825  -0.14741993      1728000    289.72931        17900        13677 
 3590000    0.9903561  -0.14699139      1728000    290.53355        17950        13717 
 3600000   0.97949713  -0.15153675      1728000    291.34826        18000        13755 
 3610000   0.94609951  -0.15412598      1728000    292.15348        18050        13795 
 3620000    1.0244029  -0.14098036      1728000    292.96069        18100        13833 
 3630000    1.0169169  -0.14793506      1728000    293.76986        18150        13868 
 3640000    1.0241184  -0.14210273      1728000    294.57907        18200        13906 
 3650000   0.96267733  -0.17121395      1728000    295.40723        18250        13947 
 3660000    1.0124606  -0.17035977      1728000    296.22168        18300        13982 
 3670000   0.97192895  -0.15824193      1728000    297.03989        18350        14019 
 3680000    0.9473817  -0.15373518      1728000    297.84246        18400        14060 
 3690000    1.0047949  -0.16087292      1728000    298.64763        18450        14098 
 3700000    1.0292119  -0.16647605      1728000     299.4829        18500        14135 
 3710000   0.96352329  -0.14538788      1728000    300.29713        18550        14174 
 3720000    1.0442123  -0.15120179      1728000    301.10099        18600        14212 
 3730000   0.94691595  -0.16420689      1728000    301.89928        18650        14253 
 3740000    1.0871183  -0.15635571      1728000    302.71761        18700        14292 
 3750000    1.0741821  -0.15334002      1728000    303.52949        18750        14328 
 3760000    1.0005064  -0.15864187      1728000    304.33861        18800        14367 
 3770000    1.0272887  -0.14526184      1728000    305.13903        18850        14404 
 3780000    0.9817527  -0.16103112      1728000    305.94321        18900        14442 
 3790000   0.99214039  -0.15580855      1728000     306.7514        18950        14476 
 3800000    1.0483631  -0.14682955      1728000    307.56454        19000        14521 
 3810000   0.98792339  -0.14569613      1728000    308.37186        19050        14560 
 3820000    1.0315938  -0.15904715      1728000    309.18578        19100        14597 
 3830000    0.9713228  -0.15375055      1728000    310.00035        19150        14636 
 3840000   0.98133268  -0.14922234      1728000     310.8098        19200        14670 
 3850000    1.0031298  -0.15321377      1728000     311.6174        19250        14708 
 3860000   0.97732283  -0.15664252      1728000    312.42899        19300        14748 
 3870000    1.0458913  -0.14749168      1728000    313.23931        19350        14785 
 3880000    0.9843296  -0.13916585      1728000    314.05947        19400        14823 
 3890000    1.0351187  -0.14320098      1728000    314.87565        19450        14861 
 3900000   0.93405857  -0.14569737      1728000    315.69601        19500        14897 
 3910000    0.9781819  -0.15163122      1728000    316.51652        19550        14940 
 3920000   0.98082773  -0.15211695      1728000     317.3247        19600        14983 
 3930000    1.0467127  -0.15221801      1728000    318.12793        19650        15020 
 3940000   0.99602899  -0.15597165      1728000    318.93071        19700        15058 
 3950000   0.93561408  -0.14740362      1728000    319.72979        19750        15097 
 3960000   0.95687559  -0.14578015      1728000    320.53614        19800        15136 
 3970000    0.9403217  -0.13393655      1728000    321.33528        19850        15179 
 3980000    1.0230031   -0.1414066      1728000    322.16246        19900        15217 
 3990000    0.9715682  -0.14512056      1728000    322.96363        19950        15257 
 4000000   0.96948576  -0.12566226      1728000    323.78394        20000        15292 
 4010000   0.99375554  -0.13857331      1728000    324.58212        20050        15332 
 4020000   0.99359646  -0.14265634      1728000    325.38988        20100        15372 
 4030000    1.0333217  -0.13484088      1728000    326.18812        20150        15408 
 4040000    1.0267713  -0.12450301      1728000    326.99775        20200        15452 
 4050000    1.0651602  -0.14885307      1728000    327.79501        20250        15493 
 4060000   0.94200474  -0.14832638      1728000    328.59033        20300        15532 
 4070000   0.99967151  -0.15686156      1728000    329.38822        20350        15563 
 4080000    0.9559434  -0.13796471      1728000    330.18963        20400        15605 
 4090000   0.95301846  -0.13052479      1728000    330.98715        20450        15646 
 4100000    1.0147335  -0.14577374      1728000    331.79538        20500        15687 
 4110000    1.0050589  -0.14005555      1728000    332.59568        20550        15722 
 4120000    1.0295631  -0.14545843      1728000    333.39891        20600        15762 
 4130000   0.98087606  -0.16218311      1728000    334.20566        20650        15802 
 4140000    1.0650705  -0.15543554      1728000    335.00148        20700        15844 
 4150000     1.019119  -0.15603271      1728000    335.80072        20750        15882 
 4160000   0.97391318  -0.14833978      1728000     336.5989        20800        15923 
 4170000    1.0613104  -0.15489913      1728000    337.40015        20850        15962 
 4180000   0.95025551  -0.16663821      1728000     338.2054        20900        16001 
 4190000   0.97605446  -0.17115071      1728000    339.00979        20950        16040 
 4200000   0.98770917  -0.14907742      1728000    339.82183        21000        16077 
 4210000    1.0123343  -0.14338987      1728000    340.62511        21050        16120 
 4220000   0.99199333  -0.15115351      1728000    341.43309        21100        16157 
 4230000    1.0127977  -0.15161222      1728000    342.25637        21150        16193 
 4240000    0.9561449  -0.15904525      1728000    343.07889        21200        16234 
 4250000   0.97138892  -0.14528843      1728000     343.9082        21250        16269 
 4260000   0.93173982  -0.15347795      1728000    344.71044        21300        16314 
 4270000   0.97328227  -0.16412159      1728000    345.51873        21350        16344 
 4280000    1.0559481  -0.16551119      1728000    346.32739        21400        16382 
 4290000   0.98529974    -0.173767      1728000    347.12858        21450        16421 
 4300000   0.98467772   -0.1774949      1728000    347.93685        21500        16452 
 4310000    0.9877732  -0.17586672      1728000    348.74155        21550        16492 
 4320000   0.94251505  -0.17470101      1728000    349.53788        21600        16529 
 4330000    1.0011403  -0.16912493      1728000    350.36624        21650        16571 
 4340000    1.0088277  -0.15321453      1728000     351.1784        21700        16606 
 4350000    0.9675083  -0.15341216      1728000    351.98081        21750        16647 
 4360000    1.0081079  -0.13844015      1728000    352.78712        21800        16685 
 4370000     1.042724  -0.13187743      1728000    353.59887        21850        16726 
 4380000   0.94384808  -0.14206831      1728000    354.41114        21900        16768 
 4390000   0.99640586  -0.14665841      1728000    355.21826        21950        16810 
 4400000   0.98187177  -0.13970771      1728000     356.0185        22000        16848 
 4410000   0.95040078  -0.13844352      1728000    356.82475        22050        16891 
 4420000    1.0100682  -0.12733927      1728000    357.63192        22100        16928 
 4430000   0.97648683  -0.13090984      1728000    358.44511        22150        16969 
 4440000    1.0632272  -0.12076266      1728000    359.25059        22200        17002 
 4450000    1.0069676  -0.12874042      1728000    360.05724        22250        17042 
 4460000   0.98537355  -0.13292477      1728000    360.86544        22300        17078 
 4470000    1.0435153   -0.1426679      1728000    361.67473        22350        17122 
 4480000   0.93495487  -0.15328579      1728000     362.4974        22400        17165 
 4490000    0.9804835  -0.16269989      1728000    363.31258        22450        17199 
 4500000   0.91763049  -0.13434319      1728000    364.12856        22500        17239 
 4510000    1.0540919  -0.14713767      1728000    364.93775        22550        17275 
 4520000   0.97723338  -0.14151781      1728000      365.741        22600        17314 
 4530000    0.9762135  -0.15118881      1728000    366.55125        22650        17352 
 4540000   0.95413086  -0.14676326      1728000    367.36345        22700        17394 
 4550000   0.99768415  -0.13300303      1728000    368.17416        22750        17436 
 4560000   0.92977267  -0.13604463      1728000    368.97837        22800        17476 
 4570000   0.98402798  -0.14983644      1728000    369.80348        22850        17512 
 4580000   0.97224844  -0.15212075      1728000    370.60171        22900        17557 
 4590000    1.0862494  -0.16367536      1728000    371.41188        22950        17594 
 4600000   0.92013341  -0.15963379      1728000    372.22457        23000        17634 
 4610000   0.99861206  -0.16013573      1728000    373.02911        23050        17675 
 4620000   0.97921433  -0.16669503      1728000    373.82738        23100        17705 
 4630000   0.99568549  -0.15848918      1728000    374.61859        23150        17751 
 4640000   0.96683071  -0.16924812      1728000     375.4148        23200        17792 
 4650000    1.0066505  -0.15886576      1728000    376.23275        23250        17830 
 4660000   0.99005986  -0.16053599      1728000    377.03692        23300        17865 
 4670000    0.9733031  -0.15358812      1728000    377.83743        23350        17908 
 4680000    1.0157379  -0.17582357      1728000    378.63961        23400        17947 
 4690000   0.99879805  -0.17048866      1728000    379.47304        23450        17982 
 4700000    1.0660475  -0.16609945      1728000    380.28819        23500        18021 
 4710000   0.95906541  -0.16896159      1728000    381.10551        23550        18057 
 4720000    1.0068622  -0.17625693      1728000    381.93672        23600        18094 
 4730000    1.0127438  -0.16176806      1728000    382.74589        23650        18135 
 4740000   0.99386845  -0.14915062      1728000    383.55107        23700        18178 
 4750000   0.99373655  -0.15319903      1728000    384.38721        23750        18214 
 4760000    1.0419679  -0.15569092      1728000     385.2254        23800        18257 
 4770000    1.0609623  -0.15072712      1728000    386.05155        23850        18294 
 4780000    1.0561645   -0.1332652      1728000    386.86379        23900        18332 
 4790000    1.0439516  -0.14593581      1728000    387.66796        23950        18373 
 4800000   0.97266837   -0.1420255      1728000    388.49902        24000        18409 
 4810000    1.0549182  -0.15075063      1728000    389.31463        24050        18448 
 4820000    1.0057583  -0.15234085      1728000    390.14778        24100        18487 
 4830000    1.0115932  -0.13101731      1728000      390.962        24150        18523 
 4840000   0.99947034  -0.14613355      1728000    391.77217        24200        18560 
 4850000   0.97335786  -0.14977542      1728000    392.58244        24250        18601 
 4860000    1.0141211  -0.14793481      1728000    393.40489        24300        18638 
 4870000    1.0413173  -0.14472351      1728000    394.24899        24350        18679 
 4880000   0.94110682  -0.14773357      1728000    395.05816        24400        18717 
 4890000    1.0481614  -0.15592373      1728000    395.89074        24450        18759 
 4900000   0.96164392  -0.15415671      1728000    396.72098        24500        18800 
 4910000   0.97547287   -0.1543637      1728000    397.53315        24550        18834 
 4920000    1.0088989  -0.16857149      1728000    398.34147        24600        18877 
 4930000    1.0335264  -0.18003829      1728000    399.14974        24650        18919 
 4940000   0.96011875  -0.17434925      1728000    399.96101        24700        18958 
 4950000    1.0217557  -0.18172918      1728000    400.77654        24750        18996 
 4960000    1.0300682  -0.17178461      1728000    401.57872        24800        19035 
 4970000    1.0226568  -0.16903619      1728000    402.37492        24850        19073 
 4980000    1.0299597  -0.16476002      1728000    403.17871        24900        19116 
 4990000   0.95066394  -0.17546787      1728000    403.98464        24950        19156 
 5000000    1.0221777  -0.13814331      1728000    404.81276        25000        19190 
 5010000     1.087936  -0.17917506      1728000    405.62195        25050        19226 
 5020000    1.0186393  -0.16296701      1728000    406.44115        25100        19264 
 5030000   0.95738666  -0.16651207      1728000    407.24643        25150        19307 
 5040000   0.99985933  -0.16569603      1728000     408.0605        25200        19343 
 5050000    1.0065689  -0.16648289      1728000    408.88338        25250        19377 
 5060000    1.0290531  -0.16648463      1728000    409.69056        25300        19416 
 5070000    1.0414256  -0.15705137      1728000    410.50063        25350        19455 
 5080000    1.0094889  -0.15826397      1728000      411.319        25400        19490 
 5090000    0.9762247  -0.15123668      1728000    412.12732        25450        19527 
 5100000    1.0445522  -0.15326508      1728000     412.9475        25500        19565 
 5110000    1.0187769  -0.15663906      1728000     413.7633        25550        19602 
 5120000   0.97536006  -0.15684911      1728000    414.56737        25600        19640 
 5130000   0.96978608   -0.1513156      1728000    415.37646        25650        19679 
 5140000   0.93276974  -0.15379104      1728000    416.18982        25700        19719 
 5150000   0.99339057  -0.14894793      1728000    417.02215        25750        19761 
 5160000   0.95611983  -0.15847682      1728000    417.82744        25800        19801 
 5170000   0.93878524   -0.1486449      1728000    418.63934        25850        19836 
 5180000   0.95459436  -0.15563742      1728000    419.45771        25900        19869 
 5190000   0.96409164  -0.17390194      1728000     420.2654        25950        19907 
 5200000   0.99960949  -0.15032097      1728000    421.08454        26000        19948 
 5210000   0.99505841  -0.17250926      1728000    421.90055        26050        19984 
 5220000     1.041978  -0.17508776      1728000     422.7075        26100        20026 
 5230000   0.99274934  -0.18035784      1728000    423.53571        26150        20060 
 5240000    1.0324283  -0.17529515      1728000    424.34947        26200        20098 
 5250000    1.0004839  -0.16418015      1728000    425.15947        26250        20133 
 5260000    1.0100361  -0.15127633      1728000     425.9706        26300        20171 
 5270000    1.0355406  -0.16179107      1728000    426.78346        26350        20214 
 5280000    1.0090351  -0.15723883      1728000    427.59128        26400        20252 
 5290000    1.0630069  -0.15428211      1728000    428.40338        26450        20286 
 5300000   0.93389208  -0.13551936      1728000    429.22822        26500        20327 
 5310000     0.979984  -0.14897353      1728000    430.04658        26550        20367 
 5320000    1.0191867  -0.14667512      1728000    430.84741        26600        20411 
 5330000   0.98400794  -0.12432872      1728000    431.65858        26650        20450 
 5340000    1.0177235  -0.13825823      1728000    432.47347        26700        20486 
 5350000   0.97948605  -0.14044285      1728000    433.28972        26750        20525 
 5360000    1.0776827  -0.14901209      1728000    434.09669        26800        20566 
 5370000    1.0006269  -0.14833081      1728000    434.90457        26850        20608 
 5380000   0.98687345  -0.15621351      1728000    435.70953        26900        20647 
 5390000   0.99022241  -0.16066611      1728000    436.54366        26950        20686 
 5400000   0.97541989  -0.15405309      1728000    437.36331        27000        20722 
 5410000   0.98892964  -0.13788122      1728000    438.17331        27050        20759 
 5420000    1.0324547  -0.16134757      1728000    438.99556        27100        20800 
 5430000   0.99675978  -0.17253905      1728000    439.81743        27150        20844 
 5440000   0.94696908  -0.15851815      1728000    440.62941        27200        20880 
 5450000    1.0164018  -0.15058353      1728000    441.43726        27250        20921 
 5460000    1.0695638  -0.15068779      1728000    442.25449        27300        20958 
 5470000   0.99526681   -0.1588316      1728000    443.07326        27350        20999 
 5480000    1.0256637  -0.15389675      1728000    443.88539        27400        21039 
 5490000    1.0296296  -0.16477137      1728000    444.70149        27450        21072 
 5500000   0.97833044  -0.16803201      1728000    445.52746        27500        21113 
 5510000   0.95319197  -0.16823725      1728000    446.34116        27550        21155 
 5520000   0.97629743  -0.16016172      1728000    447.16174        27600        21194 
 5530000    1.0128387  -0.16822647      1728000       447.97        27650        21237 
 5540000    1.0255297  -0.16531312      1728000    448.79023        27700        21272 
 5550000   0.99272102  -0.16828892      1728000    449.59848        27750        21313 
 5560000   0.99717898  -0.14861676      1728000    450.41324        27800        21354 
 5570000   0.94882312  -0.14150203      1728000     451.2275        27850        21389 
 5580000    1.0312889  -0.15137129      1728000    452.04243        27900        21426 
 5590000   0.99011366  -0.14806885      1728000    452.85836        27950        21463 
 5600000    1.0039021  -0.13495358      1728000    453.67647        28000        21508 
 5610000    1.0157488  -0.14137855      1728000    454.48645        28050        21544 
 5620000    1.0082071  -0.14179466      1728000    455.29253        28100        21585 
 5630000    1.0238041  -0.14416231      1728000     456.1215        28150        21628 
 5640000   0.99150296  -0.13686944      1728000    456.92539        28200        21672 
 5650000    1.0409706  -0.14914111      1728000    457.73243        28250        21714 
 5660000    1.0197226  -0.14321534      1728000    458.54061        28300        21756 
 5670000    1.0472928  -0.14547021      1728000    459.35876        28350        21796 
 5680000   0.95987394  -0.14101344      1728000    460.17517        28400        21833 
 5690000   0.99049933  -0.16577899      1728000    460.99652        28450        21869 
 5700000    1.0371944  -0.15282633      1728000    461.81353        28500        21907 
 5710000    0.9944244   -0.1496242      1728000    462.62062        28550        21948 
 5720000    1.0080203  -0.13636994      1728000    463.44741        28600        21990 
 5730000   0.98624968  -0.13272873      1728000    464.25852        28650        22030 
 5740000   0.93350781  -0.13036089      1728000    465.06473        28700        22069 
 5750000    1.0012754  -0.14435571      1728000    465.89148        28750        22110 
 5760000    1.0224378  -0.13444952      1728000    466.73361        28800        22149 
 5770000    1.0207232  -0.14886914      1728000    467.53882        28850        22191 
 5780000   0.99689396  -0.13585656      1728000    468.35313        28900        22232 
 5790000   0.97300429  -0.14460994      1728000     469.1595        28950        22272 
 5800000   0.98457342  -0.14304871      1728000    469.97871        29000        22315 
 5810000    1.0362969  -0.13910456      1728000    470.83267        29050        22352 
 5820000    1.0141689  -0.12810346      1728000    471.64385        29100        22388 
 5830000    1.0149056  -0.14135667      1728000    472.45417        29150        22429 
 5840000   0.98073269  -0.12977517      1728000    473.25936        29200        22469 
 5850000    1.0086325  -0.14213754      1728000    474.06602        29250        22510 
 5860000   0.97821306  -0.14254829      1728000    474.87531        29300        22552 
 5870000   0.97670325  -0.14120704      1728000    475.68245        29350        22592 
 5880000    1.0040207  -0.15047049      1728000    476.50177        29400        22629 
 5890000    1.0088334  -0.14771395      1728000    477.34113        29450        22663 
 5900000   0.99362987   -0.1507165      1728000    478.17235        29500        22708 
 5910000    1.0131254  -0.17177564      1728000    479.00853        29550        22743 
 5920000   0.98522703  -0.15920618      1728000    479.83373        29600        22778 
 5930000    1.0893557   -0.1466149      1728000    480.64999        29650        22815 
 5940000    1.0095024  -0.15942035      1728000    481.49315        29700        22853 
 5950000    1.0350786  -0.15408076      1728000     482.3303        29750        22891 
 5960000    1.0438231  -0.15653768      1728000    483.17643        29800        22932 
 5970000    1.0485409  -0.14419825      1728000     483.9886        29850        22974 
 5980000    1.0199059   -0.1398087      1728000    484.80277        29900        23015 
 5990000    1.0414041  -0.13819336      1728000     485.6154        29950        23051 
 6000000    1.0398008  -0.15385855      1728000    486.44871        30000        23085 
 6010000    1.0630925  -0.14650294      1728000    487.26689        30050        23123 
 6020000   0.97299898  -0.14660935      1728000    488.07908        30100        23160 
 6030000   0.99473126  -0.15647004      1728000    488.89327        30150        23196 
 6040000    1.0222287  -0.16067154      1728000    489.72543        30200        23235 
 6050000    1.0078579  -0.15380738      1728000    490.54358        30250        23270 
 6060000    1.0116886  -0.15505152      1728000     491.3598        30300        23308 
 6070000   0.97105225  -0.14136017      1728000    492.16498        30350        23354 
 6080000    1.0358746  -0.13023399      1728000    492.98318        30400        23384 
 6090000    1.0355727  -0.13731293      1728000    493.80227        30450        23423 
 6100000    1.0082344  -0.13950419      1728000    494.63863        30500        23464 
 6110000    1.0101725  -0.14560916      1728000    495.44879        30550        23504 
 6120000    1.0034109  -0.14402926      1728000    496.25729        30600        23542 
 6130000    1.0085228  -0.14407414      1728000    497.06805        30650        23582 
 6140000    1.0167626  -0.13649694      1728000    497.87662        30700        23618 
 6150000   0.98873374  -0.11709404      1728000    498.68384        30750        23658 
 6160000   0.93892549   -0.1130767      1728000    499.50102        30800        23699 
 6170000   0.98995988  -0.13014845      1728000    500.30525        30850        23741 
 6180000    1.0638796  -0.13781863      1728000     501.1139        30900        23780 
 6190000    1.0111897  -0.14172421      1728000    501.92408        30950        23818 
 6200000    0.9966481  -0.14644014      1728000    502.74324        31000        23860 
 6210000    1.0499067  -0.15047177      1728000     503.5624        31050        23900 
 6220000    1.0566972  -0.16633999      1728000    504.37559        31100        23938 
 6230000   0.89872393  -0.15400699      1728000    505.19774        31150        23975 
 6240000    1.0297463  -0.13755717      1728000    506.00967        31200        24014 
 6250000    1.0327239  -0.15388647      1728000    506.81335        31250        24053 
 6260000    1.0315498  -0.16406967      1728000     507.6205        31300        24090 
 6270000   0.98257773  -0.15001795      1728000    508.44096        31350        24121 
 6280000    1.0215045  -0.15044127      1728000    509.27021        31400        24164 
 6290000    1.0547363   -0.1476201      1728000    510.08246        31450        24203 
 6300000    1.0612575  -0.15248986      1728000    510.90874        31500        24242 
 6310000   0.99124889  -0.14258867      1728000    511.72691        31550        24279 
 6320000   0.97489881  -0.14723784      1728000    512.54308        31600        24317 
 6330000    1.0780155  -0.15197799      1728000    513.35843        31650        24354 
 6340000   0.94179942  -0.16853455      1728000    514.17954        31700        24398 
 6350000   0.97882113  -0.16968152      1728000    514.99058        31750        24436 
 6360000    1.0050806   -0.1749521      1728000    515.81645        31800        24474 
 6370000   0.99077695  -0.16037664      1728000    516.63655        31850        24511 
 6380000    1.0814396  -0.15905664      1728000    517.45763        31900        24548 
 6390000    1.0035179  -0.15573585      1728000    518.27734        31950        24586 
 6400000    0.9639389  -0.14788297      1728000    519.10663        32000        24625 
 6410000    1.0047614  -0.14591792      1728000     519.9326        32050        24664 
 6420000   0.98935196  -0.15841318      1728000    520.75153        32100        24703 
 6430000    1.0480856  -0.15751956      1728000    521.56962        32150        24741 
 6440000   0.95067015  -0.15734418      1728000    522.39265        32200        24779 
 6450000    0.9764734  -0.16112546      1728000    523.20964        32250        24821 
 6460000   0.99992177  -0.17456465      1728000    524.02966        32300        24860 
 6470000    1.0095774  -0.17489699      1728000    524.85064        32350        24897 
 6480000    1.0446513   -0.1583956      1728000    525.67643        32400        24935 
 6490000    1.0187338  -0.16473618      1728000     526.5177        32450        24976 
 6500000   0.96140474  -0.15843462      1728000    527.34454        32500        25017 
 6510000    1.0191328  -0.16317602      1728000     528.1735        32550        25057 
 6520000   0.97305556  -0.15961147      1728000    528.98885        32600        25094 
 6530000    1.0378112  -0.15186801      1728000    529.80365        32650        25135 
 6540000   0.97099918    -0.150266      1728000    530.62362        32700        25174 
 6550000    1.0240858  -0.14567765      1728000    531.43647        32750        25208 
 6560000    1.0289566  -0.15843171      1728000    532.24857        32800        25245 
 6570000    1.0575457  -0.14460678      1728000    533.06752        32850        25281 
 6580000    1.0298274  -0.13296161      1728000    533.87545        32900        25322 
 6590000    1.0272317  -0.13602024      1728000    534.69356        32950        25366 
 6600000    1.0187683  -0.13917057      1728000    535.52762        33000        25405 
 6610000   0.99926935  -0.13893411      1728000    536.34782        33050        25439 
 6620000    1.0102983  -0.14302705      1728000    537.15958        33100        25476 
 6630000     1.035991  -0.14590431      1728000    537.97821        33150        25519 
 6640000    1.0196843  -0.14804256      1728000    538.80043        33200        25563 
 6650000    1.0461284  -0.14053114      1728000    539.61981        33250        25602 
 6660000   0.98293643  -0.15392893      1728000    540.44296        33300        25644 
 6670000    1.0139892  -0.14732287      1728000    541.27408        33350        25677 
 6680000   0.93631861   -0.1432145      1728000    542.09964        33400        25715 
 6690000   0.99610462  -0.15203162      1728000    542.92637        33450        25755 
 6700000   0.96025549  -0.15232689      1728000    543.75765        33500        25792 
 6710000     1.001847  -0.14578385      1728000    544.59647        33550        25830 
 6720000   0.97539014  -0.13697702      1728000    545.40762        33600        25869 
 6730000    1.0559596  -0.13465631      1728000    546.21456        33650        25909 
 6740000    1.0407572  -0.13490182      1728000    547.03271        33700        25955 
 6750000    1.0246745  -0.15564611      1728000    547.85563        33750        25989 
 6760000   0.99326443  -0.12667471      1728000    548.67368        33800        26031 
 6770000    1.0167118  -0.14676257      1728000    549.49638        33850        26068 
 6780000    1.0073168  -0.14492784      1728000    550.31264        33900        26108 
 6790000    1.0046061  -0.15292041      1728000    551.13131        33950        26149 
 6800000   0.97017208  -0.14800595      1728000    551.95736        34000        26188 
 6810000    1.0858074  -0.15098993      1728000    552.77533        34050        26221 
 6820000    1.0075024  -0.15068236      1728000    553.59265        34100        26266 
 6830000    1.0145605  -0.14956438      1728000    554.42042        34150        26300 
 6840000    1.0264633  -0.17621969      1728000    555.24065        34200        26336 
 6850000   0.93037985  -0.15896983      1728000    556.07314        34250        26372 
 6860000   0.97555313  -0.14734208      1728000    556.88531        34300        26407 
 6870000   0.91555952   -0.1405936      1728000    557.70446        34350        26449 
 6880000   0.96185087  -0.13054833      1728000    558.51142        34400        26487 
 6890000   0.99076919  -0.16776743      1728000    559.31593        34450        26529 
 6900000   0.98916856  -0.15867957      1728000    560.14158        34500        26569 
 6910000    1.0266798  -0.15744604      1728000    560.94359        34550        26604 
 6920000   0.99656377  -0.16252455      1728000    561.75168        34600        26643 
 6930000    1.0077331  -0.15579006      1728000    562.56357        34650        26677 
 6940000   0.98723313  -0.15798004      1728000     563.3726        34700        26720 
 6950000    1.0432114  -0.15453409      1728000    564.17542        34750        26760 
 6960000   0.98401066  -0.16372474      1728000    565.00383        34800        26795 
 6970000   0.99542291  -0.15814348      1728000    565.82569        34850        26829 
 6980000   0.95023169  -0.16509903      1728000    566.63772        34900        26867 
 6990000    1.0541302   -0.1570324      1728000    567.45143        34950        26900 
 7000000    1.0809278  -0.15402811      1728000    568.28462        35000        26934 
 7010000    1.0021939  -0.14709708      1728000    569.09466        35050        26972 
 7020000   0.99853704  -0.16477997      1728000    569.90667        35100        27011 
 7030000    1.0464888  -0.15550577      1728000    570.70856        35150        27050 
 7040000   0.97314718  -0.16887531      1728000    571.52038        35200        27082 
 7050000    1.0586499  -0.16547137      1728000    572.33665        35250        27121 
 7060000    1.0671932  -0.15838217      1728000    573.14564        35300        27161 
 7070000   0.96427521  -0.13924677      1728000     573.9636        35350        27199 
 7080000    1.0152413  -0.14962886      1728000     574.7697        35400        27234 
 7090000    1.0053088  -0.15446406      1728000    575.59067        35450        27273 
 7100000    1.0547176  -0.16777793      1728000    576.41355        35500        27316 
 7110000    1.0174852  -0.16044402      1728000    577.23162        35550        27355 
 7120000    1.0621846  -0.16108618      1728000    578.05664        35600        27392 
 7130000    1.0442696  -0.16107314      1728000    578.87169        35650        27429 
 7140000    1.0399562   -0.1544556      1728000    579.68863        35700        27465 
 7150000   0.96182041  -0.16429224      1728000    580.50866        35750        27499 
 7160000   0.98741524  -0.16302537      1728000    581.33042        35800        27537 
 7170000   0.98195154  -0.15211328      1728000    582.14971        35850        27573 
 7180000   0.96850034  -0.14018072      1728000    582.96254        35900        27611 
 7190000   0.98077747  -0.14283352      1728000    583.78059        35950        27651 
 7200000    1.0075128  -0.14152823      1728000    584.59559        36000        27692 
 7210000   0.99555657  -0.14364163      1728000    585.40055        36050        27727 
 7220000    1.0142876  -0.13738982      1728000     586.2078        36100        27767 
 7230000    1.0012763  -0.15227394      1728000    587.01658        36150        27804 
 7240000   0.93522256  -0.14945302      1728000    587.83145        36200        27845 
 7250000    1.0703285  -0.13329812      1728000    588.64155        36250        27885 
 7260000   0.98839854  -0.13842462      1728000    589.46864        36300        27919 
 7270000   0.93632098  -0.13846589      1728000    590.27574        36350        27960 
 7280000    1.0192835  -0.13546703      1728000    591.08757        36400        27996 
 7290000    1.0083949   -0.1427042      1728000    591.89766        36450        28038 
 7300000    1.0436378   -0.1518083      1728000    592.72146        36500        28078 
 7310000    1.0109047  -0.14553968      1728000    593.54165        36550        28112 
 7320000     0.914052  -0.16854082      1728000    594.35365        36600        28150 
 7330000   0.98060414  -0.16868134      1728000    595.16457        36650        28188 
 7340000    1.0199142  -0.16639976      1728000    595.97278        36700        28229 
 7350000   0.98467179  -0.15699982      1728000    596.78138        36750        28262 
 7360000   0.99484944  -0.16487946      1728000    597.59679        36800        28302 
 7370000    1.0213058  -0.16404015      1728000    598.41274        36850        28335 
 7380000    1.0341536  -0.16417608      1728000    599.21674        36900        28373 
 7390000    1.0114824  -0.16319579      1728000    600.02879        36950        28410 
 7400000   0.97121524  -0.16442693      1728000    600.84377        37000        28446 
 7410000    1.0227464  -0.16629107      1728000    601.65262        37050        28488 
 7420000    0.9656878  -0.18130326      1728000    602.46272        37100        28528 
 7430000    1.0550948  -0.17751721      1728000     603.2847        37150        28562 
 7440000    1.0599753  -0.17613007      1728000    604.11174        37200        28598 
 7450000   0.98229657  -0.16262154      1728000    604.93653        37250        28638 
 7460000    1.0001365  -0.17076813      1728000    605.74869        37300        28679 
 7470000   0.93039023  -0.16179424      1728000    606.56161        37350        28720 
 7480000   0.98606463   -0.1607007      1728000    607.36475        37400        28761 
 7490000    1.0574446  -0.16548147      1728000    608.17072        37450        28806 
 7500000   0.99772086   -0.1535932      1728000     609.0008        37500        28842 
 7510000    1.0307836  -0.16312913      1728000    609.81282        37550        28879 
 7520000   0.96967685  -0.16759748      1728000    610.61672        37600        28922 
 7530000     1.004175  -0.17618836      1728000    611.42977        37650        28957 
 7540000   0.99592311  -0.16969659      1728000    612.24074        37700        28995 
 7550000    1.0409687  -0.16975291      1728000    613.05154        37750        29027 
 7560000   0.90890655   -0.1618942      1728000    613.87557        37800        29062 
 7570000   0.94872548  -0.15804745      1728000    614.68265        37850        29106 
 7580000   0.98429987  -0.15448897      1728000    615.48873        37900        29145 
 7590000   0.96054652  -0.16168692      1728000    616.29864        37950        29185 
 7600000   0.98267547  -0.16650234      1728000    617.11569        38000        29226 
 7610000   0.97613009  -0.15971258      1728000     617.9117        38050        29265 
 7620000   0.96553115  -0.15242769      1728000    618.71979        38100        29297 
 7630000   0.98379454  -0.16110984      1728000     619.5257        38150        29337 
 7640000   0.98644619  -0.15434741      1728000    620.33564        38200        29377 
 7650000    1.0036392  -0.14598979      1728000    621.14576        38250        29412 
 7660000   0.93279349  -0.14549253      1728000    621.94857        38300        29452 
 7670000    1.0084801  -0.16000243      1728000    622.75869        38350        29486 
 7680000   0.97787544  -0.16179608      1728000    623.57275        38400        29524 
 7690000      1.08206  -0.16643563      1728000    624.37566        38450        29562 
 7700000   0.97733345  -0.15236206      1728000    625.21376        38500        29600 
[...]
47970000    1.0571151  -0.16599491      1728000    3889.9311       239850       185053 
47980000    1.0454828  -0.17149217      1728000    3890.7131       239900       185093 
47990000    1.0339865  -0.16101687      1728000    3891.4902       239950       185127 
48000000   0.98966441  -0.16629664      1728000    3892.2851       240000       185164 
48010000   0.98961409   -0.1536619      1728000     3893.066       240050       185200 
48020000   0.95668039  -0.15430229      1728000    3893.8502       240100       185235 
48030000   0.98411925   -0.1601696      1728000    3894.6252       240150       185275 
48040000   0.97970181  -0.15015181      1728000    3895.4044       240200       185309 
48050000    1.0153302  -0.14511825      1728000    3896.1821       240250       185352 
48060000    1.0146225  -0.16889799      1728000     3896.962       240300       185392 
48070000    1.0075206  -0.15101913      1728000    3897.7418       240350       185434 
48080000   0.96614479  -0.15477486      1728000    3898.5238       240400       185474 
48090000   0.96516835  -0.16156746      1728000    3899.3071       240450       185514 
48100000   0.98995085  -0.14828551      1728000     3900.094       240500       185554 
48110000   0.98865401  -0.15141717      1728000    3900.8751       240550       185592 
48120000   0.97370526  -0.14374598      1728000    3901.6601       240600       185633 
48130000     1.068784  -0.14468283      1728000    3902.4371       240650       185671 
48140000    1.0314927  -0.15070165      1728000    3903.2122       240700       185707 
48150000    1.0172036  -0.13436575      1728000    3903.9903       240750       185746 
48160000    1.0594147  -0.14640397      1728000     3904.764       240800       185788 
48170000    1.0717485  -0.15112505      1728000    3905.5491       240850       185824 
48180000   0.96261178  -0.14577801      1728000    3906.3261       240900       185866 
48190000   0.97509318  -0.14697429      1728000    3907.1142       240950       185902 
48200000    1.0152134   -0.1460033      1728000    3907.9129       241000       185943 
48210000    1.0303226  -0.14878673      1728000    3908.8257       241050       185983 
48220000    0.9693414   -0.1655075      1728000    3909.6858       241100       186018 
48230000    1.0383106  -0.15951744      1728000     3910.492       241150       186059 
48240000    1.0744382  -0.13897149      1728000     3911.326       241200       186097 
48250000    1.0120571   -0.1538172      1728000    3912.1332       241250       186135 
48260000    1.0561239  -0.16399951      1728000    3912.9386       241300       186173 
48270000   0.96739481  -0.16383357      1728000    3913.7421       241350       186210 
48280000   0.95677435  -0.15660642      1728000    3914.5539       241400       186248 
48290000    1.0415981   -0.1453817      1728000    3915.3585       241450       186286 
48300000    1.0233309  -0.15531885      1728000    3916.1753       241500       186323 
48310000   0.99099724  -0.14293584      1728000    3916.9882       241550       186362 
48320000      1.08231  -0.16304394      1728000    3917.7941       241600       186401 
48330000   0.96026899  -0.14544998      1728000    3918.6706       241650       186441 
48340000   0.99777407  -0.15574826      1728000    3919.4787       241700       186482 
48350000   0.97761647  -0.15384865      1728000    3920.2852       241750       186522 
48360000    1.0137489  -0.14846855      1728000    3921.0912       241800       186564 
48370000    0.9647384    -0.144577      1728000    3921.8845       241850       186605 
48380000    1.0350942  -0.12558681      1728000    3922.7213       241900       186648 
48390000    1.0015126  -0.13814477      1728000    3923.5354       241950       186685 
48400000    0.9888554  -0.13000869      1728000    3924.3496       242000       186722 
48410000   0.98952738  -0.13731522      1728000    3925.1718       242050       186761 
48420000    0.9994376  -0.13398484      1728000    3925.9731       242100       186803 
48430000    1.0161912  -0.12129617      1728000    3926.7774       242150       186842 
48440000   0.98698829  -0.12711313      1728000    3927.5725       242200       186887 
48450000     1.005795  -0.12652239      1728000    3928.3827       242250       186928 
48460000     1.009999  -0.13004175      1728000    3929.1908       242300       186964 
48470000   0.98656139  -0.11780774      1728000    3929.9973       242350       187007 
48480000    1.0434635  -0.13081819      1728000    3930.8086       242400       187047 
48490000   0.97639477  -0.11311644      1728000    3931.6201       242450       187087 
48500000   0.98503822  -0.11479057      1728000    3932.4411       242500       187130 
48510000    1.0913656  -0.12278579      1728000    3933.2607       242550       187171 
48520000    1.0165322  -0.11989768      1728000     3934.087       242600       187211 
48530000     1.002562  -0.14010955      1728000    3934.9002       242650       187249 
48540000    1.0495884  -0.15254101      1728000    3935.7442       242700       187288 
48550000    1.0227528   -0.1457819      1728000      3936.57       242750       187333 
48560000     1.081617  -0.13155434      1728000    3937.3852       242800       187377 
48570000    0.9397664  -0.13262633      1728000    3938.2082       242850       187412 
48580000    1.0118343  -0.14571338      1728000    3939.0758       242900       187455 
48590000    1.0151008  -0.14370357      1728000     3939.903       242950       187493 
48600000   0.96380324  -0.16088806      1728000    3940.7313       243000       187526 
48610000    1.0049981  -0.14663925      1728000    3941.5764       243050       187569 
48620000    0.9937137   -0.1537785      1728000    3942.3966       243100       187610 
48630000    1.0115784  -0.15360101      1728000    3943.1947       243150       187647 
48640000    0.9798152  -0.15811369      1728000     3943.995       243200       187685 
48650000   0.99152084  -0.15669977      1728000    3944.8344       243250       187722 
48660000    1.0220262  -0.15179827      1728000    3945.6645       243300       187761 
48670000    1.0630344  -0.14073128      1728000    3946.4687       243350       187800 
48680000   0.98680296  -0.13532686      1728000    3947.2719       243400       187842 
48690000    1.0317914  -0.14084521      1728000    3948.0662       243450       187876 
48700000    1.0036679  -0.16024111      1728000    3948.8841       243500       187912 
48710000    1.0392962  -0.14427053      1728000    3949.6832       243550       187951 
48720000   0.97053568  -0.13937789      1728000    3950.4801       243600       187985 
48730000    1.0064584  -0.15654244      1728000     3951.282       243650       188024 
48740000   0.92668035  -0.16390486      1728000    3952.0972       243700       188064 
48750000   0.98193733  -0.15576776      1728000    3952.8913       243750       188106 
48760000    1.0203025  -0.16633979      1728000    3953.7527       243800       188140 
48770000    1.0273379  -0.14651364      1728000    3954.5828       243850       188177 
48780000   0.91754683  -0.16204711      1728000    3955.4811       243900       188219 
48790000   0.96563017  -0.14528213      1728000    3956.3087       243950       188258 
48800000   0.94339878  -0.13940945      1728000     3957.126       244000       188298 
48810000   0.99129339  -0.15295797      1728000    3957.9207       244050       188338 
48820000    1.0190127  -0.13887336      1728000    3958.7181       244100       188375 
48830000   0.96481342  -0.13808642      1728000    3959.5262       244150       188417 
48840000    1.0738013  -0.14963439      1728000    3960.3112       244200       188454 
48850000    1.0308161  -0.16552601      1728000    3961.0982       244250       188492 
48860000     1.046301  -0.17197435      1728000    3961.9119       244300       188529 
48870000    1.0147822  -0.18410447      1728000    3962.7173       244350       188565 
48880000    1.0172008  -0.18341909      1728000    3963.5876       244400       188599 
48890000   0.98480873  -0.18403923      1728000    3964.5067       244450       188634 
48900000   0.95407865  -0.16801305      1728000    3965.3212       244500       188670 
48910000    1.0043308  -0.18997074      1728000    3966.1054       244550       188700 
48920000   0.93174609  -0.17800113      1728000    3966.8919       244600       188737 
48930000    1.0301797  -0.17715852      1728000    3967.6761       244650       188770 
48940000   0.99873238  -0.18015964      1728000    3968.4563       244700       188811 
48950000   0.99990543  -0.16017381      1728000    3969.2474       244750       188846 
48960000    1.0037139  -0.17281002      1728000    3970.0251       244800       188888 
48970000    0.9668182  -0.16078103      1728000    3970.8075       244850       188918 
48980000    1.0355842  -0.15612337      1728000    3971.5863       244900       188953 
48990000   0.94111278  -0.16223663      1728000    3972.3655       244950       188990 
49000000    1.0035169  -0.16161114      1728000    3973.1611       245000       189023 
49010000    0.9210388  -0.17455206      1728000    3973.9523       245050       189064 
49020000    1.0626049  -0.15590452      1728000    3974.7348       245100       189097 
49030000    1.0781873  -0.16544863      1728000    3975.5132       245150       189137 
49040000   0.96695571  -0.15912391      1728000     3976.296       245200       189175 
49050000   0.97279164  -0.15651764      1728000    3977.0782       245250       189213 
49060000    1.0343575  -0.16289257      1728000    3977.8677       245300       189255 
49070000   0.95158926  -0.16915428      1728000    3978.6492       245350       189296 
49080000    1.0622851   -0.1513251      1728000    3979.4293       245400       189333 
49090000    1.0079822  -0.13835915      1728000    3980.2129       245450       189373 
49100000   0.99592073   -0.1469443      1728000    3981.0054       245500       189408 
49110000   0.97679679  -0.14429654      1728000    3981.7941       245550       189440 
49120000    1.0349166  -0.14754037      1728000    3982.5813       245600       189485 
49130000    1.0844831  -0.16234384      1728000    3983.3681       245650       189526 
49140000   0.99012985  -0.16044495      1728000    3984.1532       245700       189558 
49150000    1.0018492  -0.17388984      1728000    3984.9374       245750       189601 
49160000   0.98997397  -0.18324518      1728000    3985.7234       245800       189638 
49170000   0.96305434  -0.17659799      1728000    3986.5024       245850       189678 
49180000    1.0074817  -0.17684073      1728000    3987.2804       245900       189714 
49190000   0.97995674  -0.16451244      1728000    3988.0593       245950       189749 
49200000     0.988745  -0.15903155      1728000    3988.8465       246000       189788 
49210000   0.96278685  -0.15527866      1728000    3989.6242       246050       189825 
49220000    1.0790792  -0.14014741      1728000    3990.4003       246100       189868 
49230000    1.0474696   -0.1480099      1728000    3991.1819       246150       189906 
49240000   0.93612607  -0.13841137      1728000    3991.9572       246200       189946 
49250000    1.0665992   -0.1321396      1728000    3992.7354       246250       189984 
49260000     1.032536   -0.1464277      1728000    3993.5431       246300       190026 
49270000     1.036929  -0.13344211      1728000    3994.3453       246350       190065 
49280000    1.0515114  -0.12869945      1728000    3995.1231       246400       190105 
49290000   0.95650199   -0.1314077      1728000    3995.9123       246450       190144 
49300000    1.1107046  -0.13412279      1728000    3996.7059       246500       190185 
49310000    1.0559859  -0.14167592      1728000    3997.4964       246550       190226 
49320000   0.97458939  -0.14605979      1728000    3998.2734       246600       190269 
49330000    1.0099944  -0.14919285      1728000    3999.0534       246650       190311 
49340000   0.97605099  -0.13708092      1728000    3999.8354       246700       190352 
49350000   0.92868311  -0.13508622      1728000    4000.6144       246750       190391 
49360000   0.98703184   -0.1396831      1728000    4001.3933       246800       190436 
49370000   0.99986195  -0.15054746      1728000    4002.1742       246850       190469 
49380000   0.94358475  -0.14567675      1728000    4002.9462       246900       190506 
49390000    1.0225499   -0.1403587      1728000    4003.7174       246950       190550 
49400000   0.97903115  -0.13926384      1728000    4004.4984       247000       190589 
49410000    1.0475979    -0.139402      1728000    4005.2733       247050       190629 
49420000    1.0282663  -0.14580322      1728000    4006.0535       247100       190670 
49430000   0.97955453   -0.1577012      1728000    4006.8414       247150       190704 
49440000   0.98094509  -0.16301126      1728000    4007.6215       247200       190742 
49450000   0.99581179    -0.164929      1728000     4008.402       247250       190783 
49460000   0.99626972  -0.16176158      1728000    4009.1854       247300       190824 
49470000    1.0430113  -0.16589941      1728000    4009.9674       247350       190862 
49480000     1.027302  -0.16352019      1728000    4010.7574       247400       190901 
49490000   0.95404512  -0.15963024      1728000    4011.5442       247450       190939 
49500000    1.0318564  -0.13567144      1728000    4012.3504       247500       190976 
49510000    1.0903605  -0.15691499      1728000    4013.1362       247550       191014 
49520000    1.0569916  -0.16938985      1728000    4013.9224       247600       191055 
49530000   0.97139244  -0.17921078      1728000    4014.7013       247650       191095 
49540000   0.93367495  -0.17327982      1728000    4015.4942       247700       191128 
49550000   0.94626736  -0.17893675      1728000    4016.2804       247750       191168 
49560000    1.0329355  -0.18175502      1728000    4017.0664       247800       191201 
49570000    1.0260857  -0.16728225      1728000    4017.8544       247850       191241 
49580000   0.98409934  -0.15362947      1728000    4018.6383       247900       191279 
49590000   0.97364226  -0.15446136      1728000    4019.4223       247950       191316 
49600000   0.95937003  -0.16118622      1728000    4020.2153       248000       191350 
49610000   0.94722833  -0.15723911      1728000    4021.0063       248050       191388 
49620000    1.0063289  -0.15695159      1728000    4021.7891       248100       191432 
49630000     1.022384  -0.14633726      1728000    4022.5684       248150       191472 
49640000    1.0636443  -0.13399745      1728000     4023.359       248200       191512 
49650000   0.95388346  -0.13990127      1728000    4024.1661       248250       191550 
49660000    1.0492347  -0.15606239      1728000    4024.9651       248300       191587 
49670000    1.0446266  -0.15027638      1728000    4025.7595       248350       191627 
49680000    1.0083678  -0.14372594      1728000    4026.5722       248400       191663 
49690000   0.99466494  -0.14450264      1728000    4027.3676       248450       191704 
49700000   0.96627709  -0.14728971      1728000    4028.2282       248500       191739 
49710000   0.99339995  -0.14619885      1728000    4029.0204       248550       191778 
49720000     1.043926  -0.13787845      1728000    4029.8074       248600       191816 
49730000   0.95890911  -0.14646989      1728000    4030.5824       248650       191853 
49740000    1.0408811  -0.13203012      1728000    4031.3634       248700       191894 
49750000    1.0135278  -0.14619113      1728000    4032.1523       248750       191935 
49760000    1.0437405  -0.14067041      1728000    4032.9315       248800       191975 
49770000   0.93621837  -0.13788589      1728000    4033.7095       248850       192013 
49780000   0.99475406  -0.14257912      1728000    4034.5022       248900       192047 
49790000    1.0097095  -0.14018628      1728000    4035.2893       248950       192087 
49800000    1.0341589  -0.14166663      1728000    4036.0794       249000       192122 
49810000    1.0474048  -0.13714435      1728000    4036.9272       249050       192162 
49820000    1.0074321  -0.12984339      1728000    4037.7483       249100       192201 
49830000    1.0006141   -0.1288873      1728000    4038.5414       249150       192245 
49840000    1.0398391  -0.12838373      1728000    4039.3313       249200       192285 
49850000   0.98354854  -0.11481099      1728000    4040.1053       249250       192328 
49860000    1.0405903  -0.12633083      1728000    4040.8862       249300       192364 
49870000    1.0300672  -0.11251827      1728000    4041.6593       249350       192404 
49880000   0.97461415  -0.13029389      1728000     4042.443       249400       192444 
49890000   0.97971961  -0.12601236      1728000    4043.2314       249450       192479 
49900000   0.96677085  -0.11601494      1728000    4044.0103       249500       192523 
49910000    1.0211681  -0.12653188      1728000    4044.8012       249550       192567 
49920000    0.9909105  -0.13697392      1728000    4045.5885       249600       192604 
49930000    1.0307909  -0.12848628      1728000    4046.3715       249650       192643 
49940000   0.99138375  -0.13626458      1728000    4047.1622       249700       192681 
49950000    1.0474047  -0.12558268      1728000    4047.9465       249750       192720 
49960000    1.0395386  -0.13410246      1728000    4048.7334       249800       192758 
49970000    1.0140105  -0.14015066      1728000    4049.5193       249850       192801 
49980000    1.0197188  -0.12785802      1728000    4050.2992       249900       192840 
49990000    1.0460424  -0.12082562      1728000    4051.0686       249950       192886 
50000000    1.0305386  -0.12987513      1728000    4051.8563       250000       192932 
Loop time of 4051.86 on 1 procs for 50000000 steps with 500 atoms

Performance: 10661774.670 tau/day, 12340.017 timesteps/s
99.3% CPU use with 1 MPI tasks x 1 OpenMP threads

MPI task timing breakdown:
Section |  min time  |  avg time  |  max time  |%varavg| %total
---------------------------------------------------------------
Pair    | 662.65     | 662.65     | 662.65     |   0.0 | 16.35
Bond    | 1063.2     | 1063.2     | 1063.2     |   0.0 | 26.24
Neigh   | 811.58     | 811.58     | 811.58     |   0.0 | 20.03
Comm    | 33.197     | 33.197     | 33.197     |   0.0 |  0.82
Output  | 15.203     | 15.203     | 15.203     |   0.0 |  0.38
Modify  | 1412.3     | 1412.3     | 1412.3     |   0.0 | 34.86
Other   |            | 53.8       |            |       |  1.33

Nlocal:    500 ave 500 max 500 min
Histogram: 1 0 0 0 0 0 0 0 0 0
Nghost:    0 ave 0 max 0 min
Histogram: 1 0 0 0 0 0 0 0 0 0
Neighs:    1251 ave 1251 max 1251 min
Histogram: 1 0 0 0 0 0 0 0 0 0

Total # of neighbors = 1251
Ave neighs/atom = 2.502
Ave special neighs/atom = 5.976
Neighbor list builds = 2613124
Dangerous builds = 0

################
## ULOOP    ####
################
clear
OMP_NUM_THREADS environment is not set. Defaulting to 1 thread. (../comm.cpp:87)
  using 1 OpenMP thread(s) per MPI task
variable rname delete
variable simname delete
variable folder delete
variable seed delete
variable E delete
variable RW delete
variable SimOutType delete
variable SimInType delete
variable jn delete
variable jf delete

next jbn
Increment via next: value 2 on partition 0
jump SELF #last line!!!

### If e.g. I run this on 10 partitions of 1 processor,
### and initialise the variable with 'uloop N'
### it will run 10 simulations with 'jobnumber' taking
### values 1-10. Then when a particular simulation finishes, the
### script will be run again with the next value of jobnumber,
### until N simulations have been run.
## SO ULOOP IS "SERIAL" BUT FOR SURE 10x1 PROCs ARE ALWAYS BUSY
Total wall time: 1:07:41
