LAMMPS (1 Feb 2019)
OMP_NUM_THREADS environment is not set. Defaulting to 1 thread. (../comm.cpp:87)
  using 1 OpenMP thread(s) per MPI task
####################################
####	ULOOP			####
####################################
variable jbn uloop 1  # run n simulations
variable startfrom equal 0
variable jn equal ${jbn}+${startfrom}
variable jn equal 1+${startfrom}
variable jn equal 1+0
print ${jn}
print 1
1
variable seed equal (10+4)*51-2*10
variable seedr equal (10+2)*22

#
variable N equal 2000
timestep 0.01
variable Dt equal 100000
variable Temp equal 1.0
variable Norm equal 0.88585294441338
if "${jn} <= 20" then "variable E equal 0.6"
variable E equal 0.6
#if "${jn} > 2 && ${jn} <= 4" then "variable E equal 1.5"
#if "${jn} > 4 && ${jn} <= 6" then "variable E equal 2.0"
#if "${jn} > 6 && ${jn} <= 8" then "variable E equal 2.5"
#if "${jn} > 8 && ${jn} <= 10" then "variable E equal 3.0"
#if "${jn} > 10 && ${jn} <= 12" then "variable E equal 3.5"
#if "${jn} > 12 && ${jn} <= 14" then "variable E equal 4.0"
#if "${jn} > 14 && ${jn} <= 16" then "variable E equal 4.5"
#if "${jn} > 16 && ${jn} <= 18" then "variable E equal 5.0"

#
####################################
####	DEFINTIONS 	########
####################################
#
variable N equal 500
variable folder index RW_Dt${Dt}_E${E}
variable folder index RW_Dt100000_E${E}
variable folder index RW_Dt100000_E0.6
shell mkdir ${folder}
shell mkdir RW_Dt100000_E0.6
WARNING: Shell command 'mkdir' failed with error 'File exists' (../input.cpp:1287)
variable SimOutType index RW${jn}Dt${Dt}E${E}
variable SimOutType index RW1Dt${Dt}E${E}
variable SimOutType index RW1Dt100000E${E}
variable SimOutType index RW1Dt100000E0.6
variable rname index INIT/Poly.N${N}.dat
variable rname index INIT/Poly.N500.dat
variable simname index Poly.N${N}.${SimOutType}
variable simname index Poly.N500.${SimOutType}
variable simname index Poly.N500.RW1Dt100000E0.6
#
units lj
atom_style angle
boundary        p p p
neighbor 1.3 bin
neigh_modify every 5 delay 5 check yes
#
restart 1000000 ${folder}/Restart.neutr.${simname}.
restart 1000000 RW_Dt100000_E0.6/Restart.neutr.${simname}.
restart 1000000 RW_Dt100000_E0.6/Restart.neutr.Poly.N500.RW1Dt100000E0.6.
print ${rname}
print INIT/Poly.N500.dat
INIT/Poly.N500.dat
read_data ${rname}
read_data INIT/Poly.N500.dat
  orthogonal box = (-50 -50 -50) to (50 50 50)
  1 by 1 by 1 MPI processor grid
  reading atoms ...
  500 atoms
  scanning bonds ...
  1 = max bonds/atom
  scanning angles ...
  1 = max angles/atom
  reading bonds ...
  499 bonds
  reading angles ...
  498 angles
  2 = max # of 1-2 neighbors
  2 = max # of 1-3 neighbors
  4 = max # of 1-4 neighbors
  6 = max # of special neighbors

####################################
####	GROUPS	             #######
####################################
group blue type 1
500 atoms in group blue
group red type 2
0 atoms in group red
group grey type 3
0 atoms in group grey

change_box all x final -60 60 y final -60 60 z final -60 60 boundary f f f units box
  orthogonal box = (-60 -50 -50) to (60 50 50)
  orthogonal box = (-60 -60 -50) to (60 60 50)
  orthogonal box = (-60 -60 -60) to (60 60 60)

####################################
####	ANGLE	             #######
####################################
angle_style   cosine
angle_coeff  1 3.0  #20 sigma for realistic DNA (1 bead = 2.5 nm)

####################################
####	PAIRS	             #######
####################################
pair_style  soft 2.5
pair_modify     shift yes
pair_coeff      * * 20 1.12246152962189

variable prefactor equal ramp(0,50)
fix pushapart all adapt 1 pair soft a * * v_prefactor

####################################
####	FENE	             #######
####################################
bond_style   fene
special_bonds fene#<=== I M P O R T A N T (new command)
  2 = max # of 1-2 neighbors
  6 = max # of special neighbors
bond_coeff   1  30.0   1.6  1.0  1.0

####################################
####	FIXES	             #######
####################################
fix 1 all   nve
fix 2 all  langevin   1.0 1.0   1.0   ${seed}
fix 2 all  langevin   1.0 1.0   1.0   694

####################################
####	WALL	             #######
####################################
fix WALL all wall/lj126 xhi EDGE 1.0 1.0 1.122462048 xlo EDGE 1.0 1.0 1.122462048 yhi EDGE 1.0 1.0 1.122462048 ylo EDGE 1.0 1.0 1.122462048 zhi EDGE 1.0 1.0 1.122462048 zlo EDGE 1.0 1.0 1.122462048 units box

####################################
####	RESET TIME             #######
####################################
reset_timestep 0

####################################
####	SWAP - ATOMS         #######
####################################
##HERE I USE fix atom/swap to attempt an atom swap between types
## In theory, I don't need to do a loop as the fix does it every
## N timesteps
##FIRST Dt IS NOT SWAPPING ANYWAY!
group Polymer type 1 2 3
500 atoms in group Polymer
fix Aswap Polymer atom/swap ${Dt} ${N} ${seed} ${Temp} semi-grand yes types 1 2 3 mu 0.0 0.0 0.0
fix Aswap Polymer atom/swap 100000 ${N} ${seed} ${Temp} semi-grand yes types 1 2 3 mu 0.0 0.0 0.0
fix Aswap Polymer atom/swap 100000 500 ${seed} ${Temp} semi-grand yes types 1 2 3 mu 0.0 0.0 0.0
fix Aswap Polymer atom/swap 100000 500 694 ${Temp} semi-grand yes types 1 2 3 mu 0.0 0.0 0.0
fix Aswap Polymer atom/swap 100000 500 694 1 semi-grand yes types 1 2 3 mu 0.0 0.0 0.0
variable Swaps equal f_Aswap[2]/1.0
variable Attempts equal f_Aswap[1]/1.0

####################################
####    THERMO AND INTEGRATION
####################################
timestep 0.01
thermo 10000
thermo_style   custom   step  temp  epair vol cpu v_Attempts v_Swaps

####################################
####	EQUILIBRATION        #######
####################################
#THIS IS TO TEST
#PUT LARGER NUMBER WHEN DOING ACTUAL SIMULATIONS
run 100000
Neighbor list info ...
  update every 5 steps, delay 5 steps, check yes
  max neighbors/atom: 2000, page size: 100000
  master list distance cutoff = 2.42246
  ghost atom cutoff = 2.42246
  binsize = 1.21123, bins = 100 100 100
  1 neighbor lists, perpetual/occasional/extra = 1 0 0
  (1) pair soft, perpetual
      attributes: half, newton on
      pair build: half/bin/newton
      stencil: half/bin/3d/newton
      bin: standard
Per MPI rank memory allocation (min/avg/max) = 9.234 | 9.234 | 9.234 Mbytes
Step Temp E_pair Volume CPU v_Attempts v_Swaps 
       0            0            0      1728000            0            0            0 
   10000    1.0020194 0.0061046812      1728000    1.0757651          500          500 
   20000    1.0000728 0.0035714093      1728000    2.0235729          500          500 
   30000    1.0079995 0.0016114068      1728000    2.9408979          500          500 
   40000    1.0138853 0.00095059627      1728000     3.827147          500          500 
   50000    0.9942374 0.0030467903      1728000    4.7118871          500          500 
   60000   0.97644349 0.0066863742      1728000    5.5938699          500          500 
   70000   0.98300272 0.00086481915      1728000    6.4817321          500          500 
   80000    1.0049474            0      1728000    7.3476319          500          500 
   90000    1.0430468 0.0017451871      1728000    8.3177869          500          500 
  100000    1.0096437 0.0013424583      1728000     9.253772          500          500 
Loop time of 9.25477 on 1 procs for 100000 steps with 500 atoms

Performance: 9335725.331 tau/day, 10805.238 timesteps/s
99.1% CPU use with 1 MPI tasks x 1 OpenMP threads

MPI task timing breakdown:
Section |  min time  |  avg time  |  max time  |%varavg| %total
---------------------------------------------------------------
Pair    | 0.57391    | 0.57391    | 0.57391    |   0.0 |  6.20
Bond    | 2.6235     | 2.6235     | 2.6235     |   0.0 | 28.35
Neigh   | 2.7992     | 2.7992     | 2.7992     |   0.0 | 30.25
Comm    | 0.13598    | 0.13598    | 0.13598    |   0.0 |  1.47
Output  | 0.01896    | 0.01896    | 0.01896    |   0.0 |  0.20
Modify  | 2.9653     | 2.9653     | 2.9653     |   0.0 | 32.04
Other   |            | 0.1379     |            |       |  1.49

Nlocal:    500 ave 500 max 500 min
Histogram: 1 0 0 0 0 0 0 0 0 0
Nghost:    0 ave 0 max 0 min
Histogram: 1 0 0 0 0 0 0 0 0 0
Neighs:    920 ave 920 max 920 min
Histogram: 1 0 0 0 0 0 0 0 0 0

Total # of neighbors = 920
Ave neighs/atom = 1.84
Ave special neighs/atom = 1.996
Neighbor list builds = 4476
Dangerous builds = 0


unfix pushapart
unfix Aswap
reset_timestep 0

#######################################################
####	PAIRS -- REPULSIVE + REDS FERROMAGN 	#######
#######################################################
#ENERGYSCALE
variable Et equal ${E}/${Norm}
variable Et equal 0.6/${Norm}
variable Et equal 0.6/0.88585294441338

pair_style  lj/cut 1.8
pair_modify     shift yes
pair_coeff      * *  1.0 1.0 1.12246152962189

pair_coeff      1 1  ${Et} 1.0 1.8
pair_coeff      1 1  0.677313321340627 1.0 1.8
pair_coeff      1 2  1.0 1.0 1.12246152962189
pair_coeff      1 3  1.0 1.0 1.12246152962189

pair_coeff      2 2  ${Et} 1.0 1.8
pair_coeff      2 2  0.677313321340627 1.0 1.8
pair_coeff      2 3  1.0 1.0 1.12246152962189

pair_coeff      3 3  1.0 1.0 1.12246152962189
#######################################################


########################
## PER PRIMI VICINI   ##
########################
bond_style harmonic
special_bonds lj 1 1 1
  2 = max # of 1-2 neighbors
  2 = max # of 1-3 neighbors
  4 = max # of 1-4 neighbors
  6 = max # of special neighbors
bond_coeff 1 200 1.12246
#bond_style fene
#special_bonds fene
#bond_coeff 1 30 1.6 1.0 1.0

########################
## RECOLOR #############
########################
group Polymer type 1 2 3
500 atoms in group Polymer
variable smooth equal 10
variable dtsmooth equal ${Dt}/${smooth}
variable dtsmooth equal 100000/${smooth}
variable dtsmooth equal 100000/10
variable Nsmooth equal ${N}/${smooth}
variable Nsmooth equal 500/${smooth}
variable Nsmooth equal 500/10
fix Aswap Polymer atom/swap ${dtsmooth} ${Nsmooth} ${seedr} ${Temp} semi-grand yes types 1 2 3 mu 0.0 0.0 0.0
fix Aswap Polymer atom/swap 10000 ${Nsmooth} ${seedr} ${Temp} semi-grand yes types 1 2 3 mu 0.0 0.0 0.0
fix Aswap Polymer atom/swap 10000 50 ${seedr} ${Temp} semi-grand yes types 1 2 3 mu 0.0 0.0 0.0
fix Aswap Polymer atom/swap 10000 50 264 ${Temp} semi-grand yes types 1 2 3 mu 0.0 0.0 0.0
fix Aswap Polymer atom/swap 10000 50 264 1 semi-grand yes types 1 2 3 mu 0.0 0.0 0.0
variable Swaps equal f_Aswap[2]/1.0
variable Attempts equal f_Aswap[1]/1.0

####################################
####    DUMPS                 #######
####################################
##VMD
#dump 1 all custom 1000 ${folder}/${simname}.lammpstrj id mol type x y z
#dump_modify  1   format "%d %d %d %.5f %.5f %.5f"

##DAT
dump 2 all custom 100000 ${folder}/${simname}.* id type x y z ix iy iz
dump 2 all custom 100000 RW_Dt100000_E0.6/${simname}.* id type x y z ix iy iz
dump 2 all custom 100000 RW_Dt100000_E0.6/Poly.N500.RW1Dt100000E0.6.* id type x y z ix iy iz
#dump_modify   2   format "%d %d %.5f %.5f %.5f %d %d %d"

##CFG
#dump 3 all cfg 1000 ${folder}/CFG/${simname}.tot.*.cfg mass type xs ys zs id mol type
#dump_modify 3 element N C O Ca Xe

##XYZ
dump 4 all xyz 100000 XYZ_${simname}.xyz
dump 4 all xyz 100000 XYZ_Poly.N500.RW1Dt100000E0.6.xyz
dump_modify 4 element C O N Xe

###########################
thermo 10000
thermo_style   custom   step  temp  epair vol cpu v_Attempts v_Swaps
run 50000000
Neighbor list info ...
  update every 5 steps, delay 5 steps, check yes
  max neighbors/atom: 2000, page size: 100000
  master list distance cutoff = 3.1
  ghost atom cutoff = 3.1
  binsize = 1.55, bins = 78 78 78
  1 neighbor lists, perpetual/occasional/extra = 1 0 0
  (1) pair lj/cut, perpetual
      attributes: half, newton on
      pair build: half/bin/newton
      stencil: half/bin/3d/newton
      bin: standard
Per MPI rank memory allocation (min/avg/max) = 9.566 | 9.566 | 9.566 Mbytes
Step Temp E_pair Volume CPU v_Attempts v_Swaps 
       0    1.0096437    1.7294537      1728000            0            0            0 
   10000   0.99431599  -0.16008099      1728000   0.90884399           50           32 
   20000    1.0077532  -0.18637497      1728000    1.7770572          100           70 
   30000     1.002337  -0.17368363      1728000    2.6088052          150          108 
   40000    1.0331518   -0.1870502      1728000     3.423965          200          155 
   50000   0.99084851  -0.19597226      1728000     4.270124          250          196 
   60000   0.95949212   -0.1993898      1728000    5.1218531          300          231 
   70000    0.9812213  -0.20843987      1728000    5.9601581          350          273 
   80000     1.005082  -0.20388676      1728000     6.778934          400          314 
   90000   0.97257783  -0.20472893      1728000     7.595083          450          351 
  100000   0.96425538  -0.20846997      1728000       8.4331          500          395 
  110000   0.99626547  -0.20960665      1728000     9.282959          550          429 
  120000    1.0793862  -0.21277976      1728000    10.174098          600          462 
  130000    1.0052255  -0.21645862      1728000    11.021888          650          503 
  140000    1.0267162  -0.21824282      1728000    11.834858          700          536 
  150000    1.0120498  -0.24292382      1728000     12.69852          750          572 
  160000    1.0017088  -0.21900561      1728000    13.575918          800          608 
  170000   0.97557674  -0.21579093      1728000    14.393184          850          640 
  180000    1.0035734  -0.23865425      1728000     15.23001          900          679 
  190000    1.0355415   -0.2178028      1728000    16.125413          950          709 
  200000    1.0261315  -0.19703102      1728000    17.014503         1000          737 
  210000   0.99600312   -0.2114395      1728000    17.872929         1050          768 
  220000    1.0336229  -0.22119524      1728000    18.747421         1100          804 
  230000    1.0153486  -0.20533926      1728000    19.659496         1150          842 
  240000    1.0072617  -0.20983585      1728000    20.544579         1200          881 
  250000   0.99358242  -0.20990918      1728000    21.495606         1250          918 
  260000   0.97576093  -0.21560103      1728000    22.624448         1300          954 
  270000    1.0197233  -0.22964448      1728000    23.494521         1350          989 
  280000    1.0374304  -0.21995344      1728000    24.363717         1400         1024 
  290000    1.0117488  -0.22479272      1728000    25.209841         1450         1061 
  300000    1.0006677  -0.21922926      1728000     26.06499         1500         1094 
  310000   0.93338875  -0.22701507      1728000    26.922086         1550         1128 
  320000   0.94255363  -0.22694078      1728000    27.794192         1600         1167 
  330000    1.0220272  -0.21191216      1728000    28.647317         1650         1204 
  340000   0.99565063  -0.20883959      1728000    29.491452         1700         1235 
  350000    1.0129288  -0.20672175      1728000     30.34559         1750         1266 
  360000   0.94345536  -0.21136494      1728000     31.17775         1800         1303 
  370000    1.0168213  -0.21772565      1728000    32.048867         1850         1345 
  380000   0.94948864  -0.20162379      1728000    32.985919         1900         1381 
  390000   0.96882741   -0.2044628      1728000    33.851055         1950         1414 
  400000    1.0751751  -0.20790342      1728000    34.716158         2000         1453 
  410000   0.99811465  -0.20364514      1728000     35.56229         2050         1489 
  420000    1.0196269  -0.20499565      1728000    36.411028         2100         1526 
  430000   0.94246325  -0.19687683      1728000    37.341312         2150         1567 
  440000   0.95815688  -0.20568183      1728000    38.251273         2200         1607 
  450000    1.0254335  -0.20914304      1728000    39.114426         2250         1644 
  460000    1.0407598  -0.22709777      1728000    39.982248         2300         1678 
  470000    1.0039337  -0.21080626      1728000    40.851214         2350         1714 
  480000   0.95268965   -0.2058434      1728000    41.684441         2400         1753 
  490000   0.95271403  -0.21845807      1728000    42.582508         2450         1793 
  500000    1.0585132  -0.22721706      1728000    43.430841         2500         1834 
  510000   0.97192628  -0.22772438      1728000     44.29299         2550         1872 
  520000    1.0378542  -0.21998819      1728000    45.143155         2600         1905 
  530000   0.99435039  -0.20966444      1728000    45.997487         2650         1945 
  540000    1.0032765  -0.23215133      1728000    46.857622         2700         1981 
  550000    1.0281911   -0.2310412      1728000    47.694747         2750         2016 
  560000    1.0033813  -0.22856026      1728000    48.543009         2800         2053 
  570000    1.0230211  -0.22663149      1728000    49.399533         2850         2087 
  580000   0.95750324  -0.22910388      1728000    50.248661         2900         2127 
  590000   0.92313412  -0.22503547      1728000    51.109764         2950         2166 
  600000    1.0254932  -0.22071029      1728000    52.034761         3000         2205 
  610000    1.0401637   -0.2239937      1728000    52.919836         3050         2243 
  620000   0.97963413  -0.21821028      1728000    53.776959         3100         2279 
  630000     1.055939  -0.21599466      1728000    54.630086         3150         2317 
  640000    1.1052577  -0.22375084      1728000    55.486221         3200         2352 
  650000    1.0177468  -0.23768012      1728000    56.334355         3250         2392 
  660000   0.97425925  -0.23592539      1728000    57.182472         3300         2433 
  670000   0.96843927  -0.23241535      1728000    58.061571         3350         2470 
  680000   0.97460496  -0.22522024      1728000     58.96864         3400         2509 
  690000   0.99009796   -0.2275865      1728000    59.932652         3450         2545 
  700000    0.9903556  -0.22535029      1728000    60.896681         3500         2578 
  710000    1.0420568  -0.23957662      1728000    61.787763         3550         2614 
  720000    1.0396858  -0.24173254      1728000    62.689836         3600         2653 
  730000   0.97152296  -0.23280504      1728000    63.539973         3650         2690 
  740000    1.0023449  -0.22997703      1728000    64.469021         3700         2720 
  750000   0.98106236  -0.22578798      1728000    65.321145         3750         2749 
  760000    1.0189732  -0.22557807      1728000    66.159459         3800         2785 
  770000   0.94831936  -0.22846824      1728000    67.010604         3850         2820 
  780000    1.0061604  -0.21570534      1728000    67.873702         3900         2855 
  790000    1.0474427  -0.20880523      1728000    68.710844         3950         2892 
  800000   0.95323094  -0.21581687      1728000    69.539112         4000         2920 
  810000    0.9714181  -0.20321422      1728000    70.343993         4050         2962 
  820000     1.097156  -0.21569388      1728000    71.155176         4100         2999 
  830000   0.94688359  -0.21840255      1728000     71.97134         4150         3031 
  840000   0.97022781  -0.23091158      1728000     72.80852         4200         3071 
  850000   0.98435066  -0.22523749      1728000    73.619694         4250         3112 
  860000   0.96612026  -0.23705442      1728000    74.438694         4300         3149 
  870000    1.0324152  -0.22790028      1728000    75.250264         4350         3182 
  880000    1.0239974  -0.22425747      1728000    76.151325         4400         3215 
  890000   0.94866575  -0.22492616      1728000    76.961529         4450         3244 
  900000   0.90835549  -0.22494001      1728000    77.777864         4500         3286 
  910000   0.97671743  -0.22696858      1728000    78.608019         4550         3324 
  920000   0.95046123  -0.23667415      1728000    79.451252         4600         3364 
  930000   0.97817874  -0.23501613      1728000    80.266677         4650         3399 
  940000    1.0443029  -0.22807703      1728000    81.083937         4700         3434 
  950000   0.92572383  -0.22815638      1728000    81.904541         4750         3471 
  960000   0.93350697  -0.22703991      1728000    82.756671         4800         3502 
  970000    0.9708267  -0.21167532      1728000    83.621931         4850         3542 
  980000   0.96047167  -0.21269824      1728000    84.446136         4900         3576 
  990000    1.0001364  -0.22030497      1728000    85.255306         4950         3609 
 1000000   0.98370242  -0.22012093      1728000    86.088861         5000         3641 
 1010000    1.0170344  -0.21544418      1728000    86.899997         5050         3674 
 1020000    1.0247582  -0.20627734      1728000    87.734924         5100         3712 
 1030000   0.99749834  -0.20988661      1728000    88.544108         5150         3749 
 1040000   0.96533488  -0.20158474      1728000    89.397267         5200         3786 
 1050000    1.0390127  -0.18982684      1728000    90.210433         5250         3822 
 1060000    1.0602037  -0.19338785      1728000    91.022965         5300         3858 
 1070000   0.96510595  -0.21135239      1728000    91.829157         5350         3904 
 1080000    1.0125164  -0.19222023      1728000    92.682282         5400         3942 
 1090000    1.0336112  -0.19634137      1728000    93.499589         5450         3978 
 1100000    1.0050754  -0.20962928      1728000    94.350147         5500         4011 
 1110000    0.9038451  -0.21634792      1728000    95.192905         5550         4047 
 1120000    1.0176952   -0.2071076      1728000    95.996694         5600         4083 
 1130000   0.97000908  -0.20156591      1728000    96.858467         5650         4114 
 1140000   0.96785652  -0.20300936      1728000     97.67465         5700         4151 
 1150000    1.0133068  -0.20502509      1728000    98.474766         5750         4189 
 1160000    1.0053122  -0.21206766      1728000    99.298036         5800         4226 
 1170000    1.0653196  -0.19889475      1728000    100.10981         5850         4262 
 1180000   0.98249984  -0.20779274      1728000    100.92299         5900         4298 
 1190000   0.94819684  -0.18536767      1728000    101.74679         5950         4334 
 1200000    0.9694366  -0.20899351      1728000    102.60989         6000         4372 
 1210000   0.97237096  -0.21717503      1728000    103.42607         6050         4408 
 1220000   0.97069464  -0.21216106      1728000    104.23831         6100         4441 
 1230000   0.98764243  -0.21192409      1728000    105.04748         6150         4481 
 1240000   0.99724786  -0.20593293      1728000    105.90759         6200         4510 
 1250000    1.0014321  -0.19349593      1728000    106.75273         6250         4539 
 1260000   0.98793911  -0.21465881      1728000    107.58518         6300         4573 
 1270000   0.97773509  -0.19673158      1728000    108.38098         6350         4616 
 1280000    1.0008613  -0.18800786      1728000    109.21133         6400         4645 
 1290000    1.0195113  -0.17214229      1728000    110.01569         6450         4683 
 1300000    1.0287343  -0.18726354      1728000    110.85882         6500         4720 
 1310000   0.99719512  -0.20190827      1728000    111.67197         6550         4755 
 1320000   0.94127972  -0.20344383      1728000    112.50811         6600         4791 
 1330000    1.0109283  -0.18429916      1728000    113.33036         6650         4828 
 1340000   0.99601783  -0.18843337      1728000    114.14071         6700         4863 
 1350000   0.97603085  -0.19197848      1728000    114.95023         6750         4895 
 1360000   0.99317509  -0.18785447      1728000    115.80889         6800         4932 
 1370000    1.0090559  -0.19649559      1728000    116.69798         6850         4972 
 1380000   0.99178382  -0.19715878      1728000     117.5641         6900         5007 
 1390000    1.0036415  -0.22163399      1728000    118.44319         6950         5050 
 1400000   0.99954033  -0.23236735      1728000    119.36725         7000         5087 
 1410000    1.0269854  -0.21338524      1728000     120.2084         7050         5120 
 1420000   0.97208739  -0.21990617      1728000    121.02954         7100         5155 
 1430000   0.95179194  -0.21366425      1728000    121.87869         7150         5192 
 1440000   0.98756302  -0.20761073      1728000     122.7298         7200         5230 
 1450000     1.049784  -0.21518054      1728000    123.54696         7250         5261 
 1460000   0.99782977   -0.2223974      1728000    124.41908         7300         5294 
 1470000   0.96628685  -0.21553535      1728000    125.30619         7350         5328 
 1480000    1.0404017  -0.20211064      1728000    126.12435         7400         5367 
 1490000   0.95259729  -0.20399157      1728000     126.9425         7450         5409 
 1500000   0.96982776  -0.22428074      1728000    127.78565         7500         5440 
 1510000    1.0101789   -0.2327043      1728000    128.59182         7550         5473 
 1520000    1.0422523  -0.22299596      1728000    129.40599         7600         5505 
 1530000   0.98239373  -0.21746989      1728000    130.22015         7650         5538 
 1540000   0.99771437  -0.20599878      1728000    131.02631         7700         5577 
 1550000   0.99128132  -0.20367832      1728000    131.87546         7750         5612 
 1560000    1.0161425  -0.21156926      1728000    132.70759         7800         5652 
 1570000   0.98949563  -0.22112831      1728000    133.52756         7850         5689 
 1580000   0.98208359  -0.20035029      1728000    134.39768         7900         5724 
 1590000   0.97713551  -0.20019741      1728000     135.1981         7950         5764 
 1600000   0.95105241  -0.20132314      1728000    136.01473         8000         5805 
 1610000    0.9998679  -0.18461405      1728000    136.84599         8050         5844 
 1620000    1.0376638  -0.21135714      1728000    137.69213         8100         5881 
 1630000    1.0145947  -0.18802234      1728000    138.50949         8150         5918 
 1640000    1.0258989  -0.18221706      1728000    139.33065         8200         5957 
 1650000   0.96893975  -0.18088037      1728000     140.1458         8250         5993 
 1660000     0.965369  -0.18220754      1728000    140.95698         8300         6031 
 1670000    1.0343245  -0.18097445      1728000    141.79657         8350         6071 
 1680000    0.9859502  -0.19251998      1728000     142.6497         8400         6104 
 1690000    0.9477756  -0.17039508      1728000    143.56575         8450         6140 
 1700000    1.0090552  -0.18316303      1728000     144.3869         8500         6177 
 1710000    1.0059685   -0.2013389      1728000    145.19208         8550         6217 
 1720000   0.99733219  -0.19177741      1728000    146.01324         8600         6252 
 1730000    1.0042084  -0.19257167      1728000    146.83653         8650         6296 
 1740000    1.0301946  -0.20176809      1728000    147.63671         8700         6341 
 1750000   0.94765414  -0.17837762      1728000    148.48266         8750         6377 
 1760000    1.0171628  -0.19306189      1728000    149.29244         8800         6418 
 1770000    1.0292175  -0.18899208      1728000    150.16654         8850         6453 
 1780000    1.0386596  -0.18783489      1728000    150.97002         8900         6496 
 1790000   0.96899774  -0.20528641      1728000    151.81667         8950         6536 
 1800000   0.96951758  -0.21638741      1728000    152.66181         9000         6575 
 1810000   0.97919972  -0.20746057      1728000    153.49695         9050         6609 
 1820000   0.94532754  -0.19884287      1728000    154.30812         9100         6646 
 1830000    1.0093696  -0.19786423      1728000    155.12529         9150         6684 
 1840000    1.0096992  -0.19302731      1728000    155.94245         9200         6721 
 1850000   0.99857244  -0.20315222      1728000    156.78971         9250         6760 
 1860000   0.97552985  -0.19376369      1728000     157.5889         9300         6801 
 1870000   0.96729601  -0.18895343      1728000    158.39109         9350         6833 
 1880000    1.0035231  -0.19276427      1728000    159.19584         9400         6872 
 1890000    1.0022503   -0.1948079      1728000    160.01724         9450         6907 
 1900000   0.98165785  -0.19556896      1728000    160.86637         9500         6941 
 1910000   0.96607521  -0.19597664      1728000    161.66856         9550         6977 
 1920000   0.99086624  -0.18992673      1728000    162.49985         9600         7015 
 1930000    1.0399884  -0.21123256      1728000    163.33898         9650         7052 
 1940000   0.95675581   -0.2054683      1728000    164.23105         9700         7089 
 1950000     1.010258  -0.20460293      1728000    165.04122         9750         7124 
 1960000    1.0167852  -0.20711842      1728000    165.84956         9800         7161 
 1970000   0.98074333  -0.20306963      1728000    166.66271         9850         7199 
 1980000    1.0229209  -0.20184551      1728000    167.47495         9900         7237 
 1990000   0.98745803   -0.1932753      1728000    168.28611         9950         7276 
 2000000   0.92522755  -0.18517649      1728000    169.10628        10000         7315 
 2010000    1.0378467  -0.18787893      1728000    169.91748        10050         7352 
 2020000     1.015972  -0.19548472      1728000    170.73165        10100         7390 
 2030000     1.021512  -0.18979665      1728000    171.53997        10150         7424 
 2040000    1.0138163  -0.18919694      1728000    172.36832        10200         7463 
 2050000     1.030102  -0.17540652      1728000    173.19447        10250         7499 
 2060000    1.0499084  -0.18319062      1728000    174.02672        10300         7531 
 2070000   0.95107886  -0.17921244      1728000    174.83527        10350         7569 
 2080000    1.0326703  -0.19077897      1728000    175.64283        10400         7613 
 2090000    1.0365506  -0.20568675      1728000    176.44601        10450         7648 
 2100000   0.96045001  -0.19328386      1728000    177.27425        10500         7683 
 2110000    1.0378788   -0.1990367      1728000    178.10741        10550         7718 
 2120000    1.0065953  -0.19163655      1728000    178.92057        10600         7757 
 2130000   0.95637565  -0.20075638      1728000    179.74873        10650         7794 
 2140000    1.1040194  -0.18860265      1728000    180.54892        10700         7832 
 2150000   0.98277105   -0.1921886      1728000     181.3502        10750         7873 
 2160000    1.0229649  -0.21599292      1728000    182.17373        10800         7907 
 2170000    1.0531447  -0.20031472      1728000    183.00912        10850         7943 
 2180000   0.96027606  -0.20972256      1728000     183.8448        10900         7978 
 2190000   0.92507097  -0.19982134      1728000    184.65074        10950         8017 
 2200000    1.0769394  -0.20089778      1728000     185.4657        11000         8056 
 2210000    1.0182181  -0.21211724      1728000    186.27393        11050         8095 
 2220000    1.0255399  -0.20961937      1728000    187.09676        11100         8134 
 2230000    1.0128018  -0.20814503      1728000     187.9043        11150         8170 
 2240000    0.9866128  -0.21250618      1728000    188.71449        11200         8206 
 2250000   0.94677452  -0.23585734      1728000    189.52865        11250         8242 
 2260000    1.0539458  -0.22073609      1728000    190.33896        11300         8282 
 2270000     1.012412  -0.21566513      1728000     191.1547        11350         8320 
 2280000    1.0209014  -0.20974337      1728000    191.96933        11400         8359 
 2290000    1.0460339  -0.21797444      1728000    192.81444        11450         8397 
 2300000   0.95716613  -0.22139262      1728000    193.64493        11500         8428 
 2310000    1.0476942  -0.20452427      1728000    194.45973        11550         8468 
 2320000    1.0018179  -0.21427769      1728000     195.2689        11600         8496 
 2330000    1.0198153  -0.21221396      1728000    196.07707        11650         8533 
 2340000    1.0056526  -0.21524962      1728000     196.8898        11700         8567 
 2350000    1.0788904  -0.18011084      1728000    197.69799        11750         8606 
 2360000    1.0314518   -0.1869346      1728000    198.50616        11800         8647 
 2370000    1.0260809  -0.19734872      1728000    199.32384        11850         8684 
 2380000   0.92948427  -0.20717187      1728000      200.128        11900         8724 
 2390000    1.0484584  -0.20836115      1728000    200.93119        11950         8765 
 2400000    1.0081089  -0.19041243      1728000    201.75237        12000         8800 
 2410000    1.0027994  -0.16599243      1728000    202.58152        12050         8843 
 2420000   0.97862017   -0.1843506      1728000    203.40268        12100         8882 
 2430000   0.93752471  -0.21049352      1728000     204.2608        12150         8917 
 2440000    1.0357632  -0.18984776      1728000    205.06474        12200         8956 
 2450000    1.0202976  -0.18950564      1728000    205.89192        12250         8996 
 2460000    1.0200691  -0.17763835      1728000    206.69308        12300         9033 
 2470000   0.94036419   -0.1700965      1728000    207.52826        12350         9073 
 2480000   0.93027721  -0.17923117      1728000    208.32454        12400         9111 
 2490000    1.0547178  -0.19787046      1728000     209.1448        12450         9144 
 2500000    1.0075118  -0.18941855      1728000    209.95161        12500         9185 
 2510000    1.0231164  -0.18353701      1728000     210.7458        12550         9230 
 2520000    1.0319532   -0.1884919      1728000    211.53878        12600         9266 
 2530000   0.98732401   -0.1948495      1728000     212.3577        12650         9305 
 2540000    1.0158802  -0.19973882      1728000    213.19197        12700         9344 
 2550000    1.0590064   -0.1959719      1728000    213.99917        12750         9382 
 2560000    0.9772473  -0.19680769      1728000     214.7974        12800         9421 
 2570000    1.0071876  -0.21202995      1728000    215.61761        12850         9457 
 2580000    1.0672051  -0.20386827      1728000    216.42086        12900         9493 
 2590000   0.99247292  -0.21827383      1728000     217.2471        12950         9531 
 2600000   0.97055654  -0.22525893      1728000    218.11021        13000         9565 
 2610000    1.0127483   -0.2182851      1728000    218.93752        13050         9599 
 2620000   0.99934725  -0.21465725      1728000    219.77867        13100         9631 
 2630000   0.94987816  -0.22146048      1728000    220.59182        13150         9667 
 2640000    1.0165197  -0.23358465      1728000    221.40709        13200         9695 
 2650000   0.99893797  -0.22038806      1728000    222.23434        13250         9727 
 2660000   0.96495761  -0.21942749      1728000    223.05549        13300         9760 
 2670000    1.0133669  -0.22315218      1728000    223.85974        13350         9801 
 2680000     1.010167  -0.21534796      1728000    224.71741        13400         9836 
 2690000    1.0442116  -0.20758131      1728000    225.51661        13450         9876 
 2700000    1.0453018  -0.20572447      1728000     226.3288        13500         9912 
 2710000   0.98053537  -0.20975668      1728000    227.15297        13550         9950 
 2720000    1.0196528  -0.20725821      1728000    227.95315        13600         9983 
 2730000    0.9566287  -0.19040052      1728000    228.76047        13650        10021 
 2740000   0.95064914  -0.19886813      1728000    229.56582        13700        10056 
 2750000   0.96391194  -0.18723812      1728000    230.37276        13750        10089 
 2760000    1.0067712  -0.19703449      1728000    231.17499        13800        10127 
 2770000   0.98716684   -0.2000506      1728000    232.00663        13850        10165 
 2780000   0.99304879  -0.19877413      1728000    232.85176        13900        10202 
 2790000    1.0135513  -0.19217976      1728000     233.6839        13950        10237 
 2800000   0.94171762  -0.19669394      1728000    234.49806        14000        10273 
 2810000    1.0235976  -0.21746849      1728000    235.32829        14050        10309 
 2820000    1.0151269  -0.19623672      1728000    236.18743        14100        10347 
 2830000    1.0224294  -0.20788018      1728000    237.03857        14150        10385 
 2840000   0.94448009  -0.20115757      1728000    237.87171        14200        10419 
 2850000   0.99372495  -0.18686609      1728000    238.67807        14250        10462 
 2860000   0.95182661  -0.21973239      1728000    239.50732        14300        10492 
 2870000    1.0010601  -0.22139491      1728000    240.35246        14350        10530 
 2880000   0.92169184  -0.22792448      1728000     241.1826        14400        10568 
 2890000    1.0101163  -0.23020209      1728000    242.07769        14450        10605 
 2900000   0.97363854  -0.23527539      1728000    242.92381        14500        10638 
 2910000    1.0437063  -0.22414418      1728000    243.74399        14550        10664 
 2920000     1.014562  -0.21358155      1728000    244.61048        14600        10705 
 2930000    0.9758915  -0.19557034      1728000    245.41866        14650        10745 
 2940000    1.0280626  -0.17619625      1728000    246.24382        14700        10785 
 2950000   0.98567044  -0.20222971      1728000    247.05224        14750        10820 
 2960000   0.98259608  -0.18772323      1728000    247.87964        14800        10861 
 2970000    1.0100233  -0.21620465      1728000    248.67869        14850        10899 
 2980000    1.0035525   -0.2048283      1728000    249.51894        14900        10935 
 2990000   0.94628765  -0.19417305      1728000    250.32611        14950        10976 
 3000000    1.0346582   -0.1908829      1728000    251.14228        15000        11022 
 3010000    1.0525753  -0.19675567      1728000    251.95184        15050        11054 
 3020000   0.99864706  -0.19735534      1728000    252.80103        15100        11089 
 3030000   0.98667703  -0.18135673      1728000    253.61022        15150        11124 
 3040000   0.92108281  -0.19129701      1728000    254.43935        15200        11162 
 3050000     1.001731  -0.18156085      1728000    255.24053        15250        11195 
 3060000   0.97636305  -0.18705293      1728000    256.03282        15300        11233 
 3070000   0.96092627  -0.18368478      1728000    256.87297        15350        11272 
 3080000   0.96035279  -0.20513599      1728000    257.68131        15400        11305 
 3090000   0.93600863   -0.1905929      1728000    258.48443        15450        11336 
 3100000    1.0499547  -0.18646025      1728000     259.3068        15500        11369 
 3110000     1.057933   -0.1835824      1728000    260.10537        15550        11403 
 3120000    1.0516728  -0.17794933      1728000    260.92867        15600        11437 
 3130000   0.98104822  -0.18876998      1728000    261.75184        15650        11477 
 3140000    1.0396541  -0.18729045      1728000    262.58797        15700        11515 
 3150000    1.0260342  -0.20157561      1728000    263.41114        15750        11555 
 3160000    1.0259192   -0.2086352      1728000    264.21376        15800        11595 
 3170000   0.97964832  -0.19800995      1728000    265.01874        15850        11631 
 3180000   0.93173694  -0.19664783      1728000    265.81864        15900        11668 
 3190000    1.0235824  -0.19815375      1728000    266.62161        15950        11707 
 3200000   0.97830198  -0.19356308      1728000    267.45512        16000        11742 
 3210000    1.0094947  -0.19672308      1728000    268.26039        16050        11782 
 3220000    1.0350532  -0.21262458      1728000    269.07177        16100        11815 
 3230000    1.0013389  -0.21359492      1728000     269.8764        16150        11849 
 3240000    1.0143899  -0.21137976      1728000     270.6866        16200        11880 
 3250000    1.0049609  -0.20278652      1728000    271.49124        16250        11920 
 3260000    1.0012913  -0.20671889      1728000     272.3174        16300        11952 
 3270000    0.9327595  -0.22955179      1728000    273.15554        16350        11990 
 3280000      0.96384  -0.22643307      1728000    274.01967        16400        12027 
 3290000    0.9889494  -0.21491596      1728000    274.86081        16450        12062 
 3300000    1.0120124  -0.22364928      1728000    275.69716        16500        12098 
 3310000   0.98422274  -0.23979043      1728000    276.50849        16550        12132 
 3320000     1.021391  -0.22048329      1728000    277.32386        16600        12170 
 3330000   0.99532146  -0.22946667      1728000    278.13702        16650        12203 
 3340000    1.0698253  -0.24988934      1728000     278.9572        16700        12238 
 3350000   0.98383009  -0.23857815      1728000    279.77561        16750        12271 
 3360000   0.92941759  -0.22354528      1728000    280.59479        16800        12303 
 3370000   0.97572377  -0.24541715      1728000    281.40935        16850        12334 
 3380000   0.99621043  -0.22312381      1728000    282.25754        16900        12370 
 3390000   0.96361757  -0.22791651      1728000     283.0927        16950        12406 
 3400000      1.06792  -0.22942304      1728000    283.97778        17000        12443 
 3410000    1.0256496  -0.22154813      1728000    284.87487        17050        12476 
 3420000    1.0151583  -0.23166554      1728000       285.73        17100        12508 
 3430000    1.0227274  -0.24290383      1728000    286.54017        17150        12540 
 3440000    1.0194861   -0.2214293      1728000    287.36831        17200        12569 
 3450000   0.98375185  -0.20792793      1728000    288.21345        17250        12603 
 3460000   0.94328937  -0.20932233      1728000    289.06057        17300        12632 
 3470000   0.97102864  -0.20332036      1728000    289.89372        17350        12670 
 3480000    1.0402848  -0.20765163      1728000    290.74285        17400        12706 
 3490000    1.0302534   -0.2114181      1728000      291.587        17450        12740 
 3500000   0.98098252   -0.1941975      1728000    292.45211        17500        12771 
 3510000    1.0388032  -0.20215222      1728000    293.28126        17550        12809 
 3520000   0.98395905  -0.19248448      1728000     294.1147        17600        12843 
 3530000   0.98026741  -0.19569232      1728000    294.91684        17650        12881 
 3540000   0.98989297  -0.19214821      1728000    295.70946        17700        12920 
 3550000   0.99244323  -0.19714245      1728000    296.51363        17750        12955 
 3560000    1.0538334  -0.17915703      1728000    297.35677        17800        12992 
 3570000    1.0573007  -0.18144209      1728000    298.16194        17850        13029 
 3580000   0.96133123  -0.18538214      1728000    298.97015        17900        13068 
 3590000    1.0549389  -0.19323303      1728000    299.78137        17950        13104 
 3600000    1.0398565   -0.1932289      1728000    300.61258        18000        13138 
 3610000    1.0499138  -0.20015885      1728000    301.43174        18050        13174 
 3620000    1.0003816  -0.19455745      1728000     302.2669        18100        13211 
 3630000    1.0386195  -0.20179692      1728000    303.10963        18150        13253 
 3640000    1.0586151  -0.21536316      1728000    304.00374        18200        13291 
 3650000   0.98743619   -0.1986214      1728000    304.80192        18250        13331 
 3660000   0.97982867  -0.20574534      1728000    305.61739        18300        13366 
 3670000    1.0115715  -0.21072025      1728000    306.43445        18350        13404 
 3680000   0.92073124  -0.21966114      1728000     307.2453        18400        13439 
 3690000   0.99417882  -0.21595053      1728000    308.06047        18450        13469 
 3700000    1.0093288  -0.22619656      1728000    308.88137        18500        13506 
 3710000    1.0108883  -0.20608623      1728000    309.69854        18550        13549 
 3720000    1.0377773  -0.20917947      1728000    310.49981        18600        13586 
 3730000   0.98501482  -0.22899259      1728000    311.30415        18650        13618 
 3740000    1.0013648  -0.23397079      1728000    312.14627        18700        13652 
 3750000   0.94420542  -0.22223934      1728000    312.98642        18750        13694 
 3760000   0.94833341  -0.19909519      1728000    313.79959        18800        13733 
 3770000    1.0023912   -0.2072037      1728000    314.62573        18850        13775 
 3780000    1.0529556  -0.21074763      1728000    315.42705        18900        13816 
 3790000   0.96964177  -0.20906221      1728000    316.23023        18950        13850 
 3800000   0.98304556  -0.19458101      1728000    317.04339        19000        13886 
 3810000   0.98795739  -0.18899566      1728000    317.83964        19050        13923 
 3820000    1.0562059  -0.18537839      1728000    318.66677        19100        13968 
 3830000    1.0248658  -0.19645789      1728000    319.46497        19150        14007 
 3840000   0.95764509  -0.19594911      1728000    320.28226        19200        14046 
 3850000    1.0093536  -0.18676183      1728000    321.09244        19250        14080 
 3860000    1.0499259  -0.20196981      1728000    321.90173        19300        14117 
 3870000    1.0040781  -0.21218662      1728000    322.77543        19350        14150 
 3880000    1.0587778  -0.20491749      1728000    323.57669        19400        14186 
 3890000    1.0330798  -0.20042322      1728000    324.37995        19450        14225 
 3900000    1.0291528  -0.19998233      1728000    325.19332        19500        14257 
 3910000   0.97214471  -0.21910338      1728000    325.99351        19550        14294 
 3920000   0.96150773  -0.21592121      1728000    326.79967        19600        14330 
 3930000    1.0064205  -0.20860644      1728000    327.62083        19650        14368 
 3940000   0.98217211  -0.20920885      1728000    328.42802        19700        14406 
 3950000   0.96957648  -0.21443441      1728000    329.23319        19750        14447 
 3960000    1.0539058   -0.1968684      1728000    330.05835        19800        14485 
 3970000   0.96040827  -0.20289904      1728000    330.85951        19850        14521 
 3980000   0.99750017   -0.2032127      1728000    331.68568        19900        14564 
 3990000   0.98519458  -0.21201537      1728000    332.51482        19950        14600 
 4000000    0.9753865  -0.19241107      1728000    333.34998        20000        14640 
 4010000      1.00042   -0.1919055      1728000    334.15284        20050        14677 
 4020000    1.0216125  -0.16597249      1728000      334.958        20100        14714 
 4030000   0.93613516  -0.18918879      1728000    335.76431        20150        14758 
 4040000   0.98065456  -0.17277078      1728000    336.56858        20200        14792 
 4050000    1.0497545  -0.18997846      1728000    337.37975        20250        14831 
 4060000    1.0444225   -0.1883373      1728000     338.2144        20300        14871 
 4070000   0.99354343  -0.19013963      1728000    339.04655        20350        14906 
 4080000    1.0291002  -0.19575316      1728000    339.87889        20400        14940 
 4090000   0.98485989  -0.19806007      1728000    340.75769        20450        14979 
 4100000   0.99184145  -0.19544734      1728000    341.57099        20500        15019 
 4110000    1.0311674  -0.18952191      1728000    342.39814        20550        15062 
 4120000    1.0167638  -0.19494498      1728000     343.2303        20600        15099 
 4130000   0.97107162  -0.17790331      1728000    344.03747        20650        15135 
 4140000   0.99466803  -0.19178335      1728000    344.84075        20700        15171 
 4150000    1.0585556  -0.22054507      1728000    345.64951        20750        15209 
 4160000   0.97422402   -0.2245089      1728000    346.45982        20800        15240 
 4170000   0.97965745  -0.20885868      1728000    347.26067        20850        15276 
 4180000   0.96078307   -0.2126584      1728000    348.06886        20900        15311 
 4190000     1.047024  -0.21193115      1728000    348.88902        20950        15347 
 4200000    1.0183354  -0.20795735      1728000    349.69127        21000        15383 
 4210000    0.9986656  -0.21564845      1728000    350.50075        21050        15419 
 4220000    1.1164989  -0.18949587      1728000    351.30771        21100        15462 
 4230000    1.0117069  -0.20763937      1728000    352.13059        21150        15496 
 4240000   0.99819322  -0.18913155      1728000    352.96672        21200        15533 
 4250000   0.98930476  -0.18681676      1728000    353.78188        21250        15575 
 4260000    1.0210461  -0.19222119      1728000    354.59904        21300        15612 
 4270000   0.96459242   -0.1868248      1728000    355.39351        21350        15644 
 4280000    1.0711133  -0.18427308      1728000    356.22366        21400        15682 
 4290000    1.0131969  -0.16424439      1728000    357.04083        21450        15723 
 4300000    1.0104005  -0.16254729      1728000    357.86142        21500        15764 
 4310000   0.97921131  -0.17346111      1728000    358.66075        21550        15805 
 4320000    1.0084815  -0.16947304      1728000    359.45992        21600        15840 
 4330000    1.0623892  -0.16287255      1728000    360.26411        21650        15877 
 4340000    1.0086599  -0.15897238      1728000    361.05451        21700        15912 
 4350000    1.0660374   -0.1732287      1728000    361.85269        21750        15950 
 4360000   0.97819775  -0.17157516      1728000    362.67883        21800        15986 
 4370000    1.0140687  -0.16971204      1728000    363.48749        21850        16024 
 4380000    1.0369406  -0.16096804      1728000    364.29241        21900        16062 
 4390000    1.0532799  -0.16113055      1728000    365.08885        21950        16099 
 4400000    1.0462955  -0.16551499      1728000    365.90811        22000        16132 
 4410000   0.97909292  -0.16673992      1728000    366.71942        22050        16174 
 4420000    1.0308014  -0.16684963      1728000    367.52161        22100        16214 
 4430000   0.98905657  -0.16140409      1728000    368.32681        22150        16253 
 4440000   0.95834798  -0.16656289      1728000    369.15397        22200        16289 
 4450000    1.0224995  -0.18748318      1728000    370.06903        22250        16326 
 4460000   0.96466984  -0.17915151      1728000    370.97411        22300        16365 
 4470000    1.0345539  -0.18428784      1728000    371.88117        22350        16408 
 4480000   0.95488406  -0.18979605      1728000    372.70832        22400        16449 
 4490000    1.0404409  -0.19620432      1728000    373.53115        22450        16486 
 4500000    1.0290755  -0.21330919      1728000    374.35847        22500        16522 
 4510000   0.99849008  -0.20595701      1728000    375.16864        22550        16554 
 4520000   0.98170628  -0.21631613      1728000    375.98181        22600        16588 
 4530000    1.0500178  -0.22542839      1728000    376.78724        22650        16621 
 4540000    1.0190358  -0.21043635      1728000    377.59241        22700        16653 
 4550000   0.91924146  -0.22214356      1728000    378.39759        22750        16686 
 4560000   0.95779198  -0.22140317      1728000    379.19777        22800        16719 
 4570000    1.0118039  -0.21651238      1728000    379.99546        22850        16758 
 4580000    1.0553726  -0.20704632      1728000    380.79452        22900        16796 
 4590000    1.0135298  -0.21482971      1728000    381.64041        22950        16835 
 4600000   0.94747736  -0.22446255      1728000    382.48316        23000        16872 
 4610000   0.99746907   -0.2073608      1728000    383.30942        23050        16913 
 4620000   0.96880606  -0.22639833      1728000    384.18761        23100        16952 
 4630000   0.94865267  -0.20438911      1728000     384.9966        23150        16986 
 4640000    1.0234813  -0.21363225      1728000     385.8046        23200        17026 
 4650000    1.0291808  -0.21283651      1728000    386.62164        23250        17064 
 4660000    1.0232317  -0.21696232      1728000    387.43242        23300        17098 
 4670000    1.0505387  -0.20913809      1728000    388.24234        23350        17137 
 4680000   0.97146841  -0.22464528      1728000    389.05036        23400        17171 
 4690000   0.98908134  -0.21442576      1728000    389.88639        23450        17206 
 4700000   0.94593134  -0.21446764      1728000    390.71047        23500        17235 
 4710000    0.9946582  -0.21466184      1728000    391.53531        23550        17265 
 4720000   0.98198451  -0.20795176      1728000    392.36007        23600        17303 
 4730000   0.98752131  -0.21833721      1728000    393.19729        23650        17339 
 4740000    1.0443375  -0.22288154      1728000    394.00861        23700        17375 
 4750000   0.99500161  -0.22254755      1728000    394.81185        23750        17408 
 4760000   0.97045147  -0.21613074      1728000    395.61862        23800        17441 
 4770000    1.0681479  -0.21613489      1728000    396.42134        23850        17480 
 4780000   0.95645902  -0.22188057      1728000    397.23338        23900        17514 
 4790000    1.0096682  -0.22827157      1728000    398.03948        23950        17548 
 4800000    1.0392079  -0.22095388      1728000    398.84947        24000        17584 
 4810000    1.0376874   -0.2182921      1728000    399.65094        24050        17619 
 4820000    1.0099112  -0.22259169      1728000    400.47712        24100        17653 
 4830000   0.99040637  -0.21610108      1728000    401.28731        24150        17685 
 4840000   0.98955785  -0.20991555      1728000    402.13343        24200        17717 
 4850000    1.0342624  -0.17703357      1728000    402.97657        24250        17756 
 4860000    1.0035974  -0.19465396      1728000    403.84174        24300        17792 
 4870000     1.055753    -0.196397      1728000    404.65311        24350        17832 
 4880000    1.0287628  -0.18561643      1728000    405.45635        24400        17871 
 4890000    1.0266814  -0.19819625      1728000    406.26669        24450        17906 
 4900000    1.0237415  -0.19808029      1728000    407.07286        24500        17947 
 4910000    1.0083276  -0.19493765      1728000    407.87461        24550        17985 
 4920000    1.0118263  -0.17370533      1728000    408.70527        24600        18027 
 4930000    1.0165907  -0.19677159      1728000    409.57437        24650        18056 
 4940000    1.0107206  -0.20663717      1728000    410.38355        24700        18091 
 4950000    0.9904492  -0.20435364      1728000    411.18074        24750        18130 
 4960000    0.9776115  -0.19631339      1728000     411.9869        24800        18169 
 4970000   0.99016283  -0.20868766      1728000    412.82106        24850        18202 
 4980000    1.0399866  -0.18822966      1728000    413.63846        24900        18237 
 4990000    1.0390995     -0.18738      1728000    414.43795        24950        18278 
 5000000   0.97238734  -0.18224309      1728000    415.28609        25000        18316 
 5010000   0.92053134  -0.18614542      1728000    416.14622        25050        18352 
 5020000    1.0348061  -0.17607226      1728000    416.94838        25100        18388 
 5030000    1.0008944  -0.17801692      1728000    417.76955        25150        18426 
 5040000    1.0022157  -0.18872111      1728000    418.56678        25200        18465 
 5050000   0.99395376  -0.19368806      1728000    419.38494        25250        18504 
 5060000      1.01124  -0.17838529      1728000    420.19326        25300        18541 
 5070000   0.93105085  -0.20804649      1728000     421.0264        25350        18581 
 5080000   0.96003237  -0.21519121      1728000     421.9165        25400        18614 
 5090000   0.98778926  -0.23158211      1728000    422.76863        25450        18645 
 5100000    1.0318039  -0.23215394      1728000    423.61674        25500        18684 
 5110000    1.0405761  -0.20540791      1728000      424.424        25550        18721 
 5120000    1.0655393  -0.22783502      1728000    425.26613        25600        18760 
 5130000    1.0177994  -0.21759932      1728000    426.15124        25650        18791 
 5140000    1.0277845  -0.21697595      1728000    427.01134        25700        18831 
 5150000    1.0449847  -0.20962766      1728000    427.84149        25750        18869 
 5160000   0.99289204  -0.20650483      1728000    428.66373        25800        18903 
 5170000    1.0108838  -0.20421603      1728000    429.49387        25850        18941 
 5180000    1.0224542  -0.21006444      1728000    430.45889        25900        18978 
 5190000    1.0340848  -0.22934728      1728000    431.29204        25950        19015 
 5200000   0.96077668  -0.21919906      1728000    432.12319        26000        19052 
 5210000    1.0040782  -0.22241903      1728000    432.97432        26050        19081 
 5220000    1.0084156  -0.22617741      1728000    433.81244        26100        19117 
 5230000    1.0332402  -0.20312708      1728000    434.67656        26150        19155 
 5240000     1.051481  -0.19880762      1728000    435.47875        26200        19197 
 5250000   0.98605471  -0.19577763      1728000    436.28991        26250        19233 
 5260000    1.0120424  -0.18855914      1728000    437.10009        26300        19269 
 5270000    1.0223465  -0.18955365      1728000    437.95521        26350        19303 
 5280000   0.99049831  -0.19166531      1728000    438.78746        26400        19334 
 5290000   0.99412059  -0.20235517      1728000    439.60063        26450        19371 
 5300000    1.0900135  -0.21523214      1728000     440.4268        26500        19412 
 5310000     1.017046  -0.22285027      1728000    441.24008        26550        19446 
 5320000   0.97069348  -0.22582309      1728000    442.07325        26600        19478 
 5330000   0.96420635  -0.23803932      1728000    442.92835        26650        19511 
 5340000   0.97575176  -0.22191786      1728000    443.79546        26700        19546 
 5350000    1.0411927  -0.22034751      1728000    444.60165        26750        19581 
 5360000   0.95606557  -0.23126937      1728000    445.41192        26800        19623 
 5370000    0.9987707  -0.23918805      1728000    446.21809        26850        19661 
 5380000    1.0335068  -0.23360519      1728000    447.02925        26900        19694 
 5390000   0.98362087  -0.23997335      1728000    447.84242        26950        19726 
 5400000     1.036267  -0.24485915      1728000    448.68158        27000        19762 
 5410000   0.99652192  -0.22412701      1728000    449.51487        27050        19799 
 5420000   0.95955987  -0.22880159      1728000    450.31829        27100        19836 
 5430000     1.064093  -0.23200532      1728000    451.12168        27150        19877 
 5440000    1.0118785  -0.23137924      1728000    451.95284        27200        19913 
 5450000   0.99728852  -0.23219748      1728000    452.78798        27250        19953 
 5460000   0.99133688  -0.24769027      1728000    453.60225        27300        19991 
 5470000    1.0385336  -0.22646332      1728000    454.40856        27350        20027 
 5480000   0.98774915  -0.22234988      1728000    455.21486        27400        20063 
 5490000    1.0111256  -0.22263667      1728000    456.02305        27450        20101 
 5500000   0.99548591  -0.21610187      1728000    456.85196        27500        20141 
 5510000   0.91320739  -0.20339775      1728000    457.69012        27550        20176 
 5520000    1.0189613  -0.20671372      1728000    458.49928        27600        20213 
 5530000   0.93514621  -0.21296694      1728000     459.3107        27650        20248 
 5540000    1.0653867   -0.2095009      1728000    460.12234        27700        20279 
 5550000   0.94989277   -0.2075241      1728000    460.92653        27750        20312 
 5560000   0.95116386  -0.22140304      1728000     461.7497        27800        20350 
 5570000   0.98427777   -0.2143397      1728000     462.6188        27850        20385 
 5580000   0.97952705  -0.23387303      1728000    463.48292        27900        20429 
 5590000   0.93414052  -0.24525834      1728000     464.3896        27950        20462 
 5600000   0.98216228  -0.24566799      1728000    465.21418        28000        20502 
 5610000    1.0094754  -0.23574161      1728000     466.0516        28050        20541 
 5620000   0.99959542  -0.22359875      1728000    466.88674        28100        20571 
 5630000    1.0488204  -0.22062159      1728000    467.71805        28150        20608 
 5640000    1.0914386  -0.20905481      1728000    468.59418        28200        20641 
 5650000    1.0629903  -0.22035617      1728000    469.40536        28250        20677 
 5660000    1.0342115  -0.20907736      1728000    470.22751        28300        20709 
 5670000    1.0304814  -0.20270053      1728000    471.06615        28350        20742 
 5680000   0.95961809  -0.20593354      1728000    471.88433        28400        20780 
 5690000    1.0563676  -0.20631032      1728000    472.72745        28450        20814 
 5700000    1.0132817  -0.20492514      1728000    473.56362        28500        20850 
 5710000    1.0191476  -0.22033746      1728000    474.37879        28550        20887 
 5720000    1.0235676  -0.21091094      1728000    475.20049        28600        20923 
 5730000    1.0321365  -0.21941735      1728000    476.03562        28650        20960 
 5740000    1.0351571  -0.20169299      1728000    476.86277        28700        20997 
 5750000    1.0159497   -0.2017172      1728000     477.6962        28750        21036 
 5760000    1.0532076  -0.20477436      1728000     478.5054        28800        21075 
 5770000    1.0446167    -0.208233      1728000    479.31648        28850        21111 
 5780000    1.0033377  -0.21110504      1728000    480.11965        28900        21152 
 5790000    1.0548612  -0.21316231      1728000    480.93582        28950        21184 
 5800000    1.0041722  -0.19891873      1728000     481.8099        29000        21219 
 5810000   0.97400079  -0.18894123      1728000    482.64506        29050        21265 
 5820000    1.0195241  -0.18725329      1728000    483.45322        29100        21300 
 5830000    1.0104378  -0.16177807      1728000    484.27739        29150        21336 
 5840000     1.059061  -0.17303542      1728000     485.1351        29200        21379 
 5850000    1.0394923  -0.18240265      1728000    485.93927        29250        21416 
 5860000   0.99730462  -0.18719104      1728000    486.78259        29300        21458 
 5870000    1.0320758   -0.1953717      1728000    487.58476        29350        21495 
 5880000   0.97759591  -0.18834078      1728000    488.39204        29400        21534 
 5890000    1.0112398  -0.18197826      1728000     489.2059        29450        21572 
 5900000   0.97656071  -0.19081636      1728000    490.03951        29500        21610 
 5910000    1.0104407  -0.18059645      1728000    490.84874        29550        21648 
 5920000    1.0588978  -0.18977179      1728000    491.65406        29600        21687 
 5930000    0.9932213  -0.18734039      1728000    492.49121        29650        21722 
 5940000   0.89512274  -0.18050329      1728000    493.31836        29700        21757 
 5950000   0.98326762  -0.19213731      1728000    494.12254        29750        21794 
 5960000   0.97174532  -0.20992725      1728000    494.92296        29800        21823 
 5970000   0.94409981  -0.20501587      1728000    495.73123        29850        21857 
 5980000    1.0527606  -0.21322788      1728000     496.5604        29900        21897 
 5990000   0.97522164  -0.20894453      1728000    497.39053        29950        21933 
 6000000   0.98334716  -0.20691219      1728000    498.23766        30000        21968 
 6010000   0.94599331  -0.21448059      1728000    499.06882        30050        22000 
 6020000   0.93448092  -0.21785907      1728000    499.88698        30100        22038 
 6030000   0.96599168   -0.2089517      1728000    500.70914        30150        22072 
 6040000   0.96785019   -0.2153726      1728000     501.5144        30200        22111 
 6050000   0.97725225  -0.20810519      1728000    502.36263        30250        22155 
 6060000   0.94728152  -0.21973205      1728000    503.18369        30300        22190 
 6070000     1.058721  -0.21235034      1728000      504.071        30350        22221 
 6080000    1.0259993  -0.22468252      1728000    504.88284        30400        22253 
 6090000      1.04554  -0.22128661      1728000    505.69001        30450        22289 
 6100000   0.99861718  -0.22074441      1728000    506.54351        30500        22323 
 6110000   0.99150126  -0.22098925      1728000    507.35667        30550        22353 
 6120000    1.0540643  -0.23194322      1728000    508.16685        30600        22392 
 6130000   0.94318226  -0.22471795      1728000    508.98314        30650        22424 
 6140000    1.0133059  -0.20525765      1728000     509.7913        30700        22459 
 6150000   0.96861355  -0.21130367      1728000    510.60447        30750        22500 
 6160000   0.99432821  -0.20608003      1728000    511.42164        30800        22540 
 6170000    1.0111949  -0.20487011      1728000    512.24496        30850        22576 
 6180000   0.95495973  -0.20080761      1728000     513.0831        30900        22606 
 6190000    1.0087174   -0.2301096      1728000    513.91926        30950        22637 
 6200000   0.98202774  -0.22365937      1728000     514.7424        31000        22676 
 6210000   0.97706085  -0.22510447      1728000    515.57255        31050        22705 
 6220000    1.0193747  -0.24238024      1728000    516.39392        31100        22740 
 6230000   0.99974349   -0.2389925      1728000    517.22409        31150        22772 
 6240000   0.89436047  -0.20820813      1728000    518.05523        31200        22809 
 6250000   0.96511962  -0.20819632      1728000    518.90839        31250        22852 
 6260000     1.005711  -0.21138297      1728000    519.73059        31300        22887 
 6270000   0.96667243  -0.19949349      1728000     520.6902        31350        22923 
 6280000    1.0653838  -0.22776071      1728000    521.53512        31400        22958 
 6290000    1.0151652  -0.22560074      1728000    522.37411        31450        22993 
 6300000   0.99633036  -0.22924752      1728000    523.22226        31500        23034 
 6310000    1.0427084  -0.22930187      1728000    524.03756        31550        23070 
 6320000    1.0366232  -0.23930783      1728000    524.85572        31600        23102 
 6330000   0.96920799  -0.24403917      1728000    525.67488        31650        23136 
 6340000   0.99943448   -0.2282198      1728000    526.47851        31700        23178 
 6350000    1.0274173   -0.2347875      1728000    527.30169        31750        23214 
 6360000    1.0062229  -0.23562757      1728000    528.16989        31800        23254 
 6370000    1.0495504  -0.23574275      1728000    529.05698        31850        23281 
 6380000   0.99926905   -0.2201141      1728000    529.87316        31900        23312 
 6390000   0.97922127  -0.22775872      1728000    530.68032        31950        23352 
 6400000    0.9733974  -0.22017772      1728000    531.50771        32000        23391 
 6410000    1.0715048  -0.22006651      1728000    532.33786        32050        23424 
 6420000     0.995954  -0.22122752      1728000     533.1733        32100        23457 
 6430000     1.085385  -0.23314129      1728000    533.98746        32150        23495 
 6440000   0.99390551  -0.23286149      1728000    534.82383        32200        23528 
 6450000    1.0954394  -0.22389892      1728000    535.65399        32250        23564 
 6460000    1.0631769  -0.19975165      1728000    536.47421        32300        23600 
 6470000   0.99894371  -0.22116511      1728000    537.27942        32350        23635 
 6480000     1.033417  -0.21272346      1728000    538.11272        32400        23670 
 6490000   0.96647731  -0.19738345      1728000     538.9299        32450        23709 
 6500000    1.0105675  -0.19321875      1728000     539.7463        32500        23749 
 6510000    1.0077508  -0.19656264      1728000    540.55852        32550        23790 
 6520000    1.0067059  -0.21032453      1728000    541.37685        32600        23829 
 6530000    1.0056356  -0.19465284      1728000      542.209        32650        23870 
 6540000   0.92660535  -0.20413392      1728000    543.04915        32700        23910 
 6550000   0.94631683  -0.19943786      1728000    543.90934        32750        23946 
 6560000   0.92556285  -0.19418196      1728000    544.72551        32800        23982 
 6570000    1.0098023  -0.20937504      1728000    545.53466        32850        24021 
 6580000    1.0525358  -0.20745074      1728000    546.36782        32900        24061 
 6590000     1.017458  -0.18594578      1728000    547.17398        32950        24097 
 6600000    1.0106994  -0.19778415      1728000    548.00509        33000        24136 
 6610000   0.93887074  -0.18911361      1728000    548.81515        33050        24183 
 6620000    1.0223839  -0.19495663      1728000    549.61377        33100        24223 
 6630000    1.0055897  -0.18541013      1728000    550.41396        33150        24262 
 6640000   0.95933961  -0.19043257      1728000    551.21514        33200        24299 
 6650000   0.97315376   -0.1879925      1728000    552.02631        33250        24334 
 6660000     1.000361   -0.1818458      1728000    552.86144        33300        24371 
 6670000   0.99254787  -0.19144998      1728000    553.67396        33350        24405 
 6680000    1.0128965  -0.19216296      1728000    554.48043        33400        24444 
 6690000     1.003238  -0.18704152      1728000    555.33056        33450        24481 
 6700000    1.0239992  -0.19775256      1728000    556.17168        33500        24519 
 6710000    1.0362104  -0.18688928      1728000    556.99185        33550        24560 
 6720000   0.99498764  -0.19902351      1728000    557.79905        33600        24601 
 6730000    1.0292584  -0.18955962      1728000    558.60346        33650        24636 
 6740000   0.98567628  -0.19439753      1728000    559.41363        33700        24670 
 6750000    1.0277294  -0.19534039      1728000    560.20686        33750        24709 
 6760000   0.98657102  -0.19754583      1728000    561.01205        33800        24745 
 6770000    1.0466695   -0.1925222      1728000    561.81921        33850        24778 
 6780000    1.0196906  -0.18509112      1728000    562.65735        33900        24815 
 6790000   0.99340839  -0.19854627      1728000    563.46953        33950        24849 
 6800000   0.96710135  -0.19215672      1728000     564.2897        34000        24888 
 6810000   0.99062426  -0.19690483      1728000    565.10941        34050        24924 
 6820000    0.9748571  -0.18679311      1728000    565.93084        34100        24963 
 6830000   0.95340359    -0.184208      1728000    566.72112        34150        25002 
 6840000    1.0092772  -0.19288694      1728000    567.51909        34200        25040 
 6850000   0.95886197  -0.18338555      1728000    568.30915        34250        25078 
 6860000    1.0307906  -0.18444275      1728000    569.13115        34300        25119 
 6870000    0.9946155  -0.19499607      1728000    569.93192        34350        25153 
 6880000   0.96612953     -0.20111      1728000     570.7471        34400        25189 
 6890000    1.0103184  -0.19024491      1728000    571.54927        34450        25223 
 6900000    1.0435648   -0.1902111      1728000    572.37643        34500        25260 
 6910000   0.97939321  -0.18691338      1728000    573.19958        34550        25298 
 6920000    1.0363732  -0.20447761      1728000    574.08667        34600        25334 
 6930000    1.0172543  -0.20119029      1728000    574.89498        34650        25369 
 6940000   0.98526141  -0.21543652      1728000    575.69944        34700        25409 
 6950000   0.97740137  -0.21131983      1728000    576.50728        34750        25445 
 6960000    1.0705965  -0.20035818      1728000    577.34715        34800        25481 
 6970000    1.0517219  -0.20034082      1728000    578.21684        34850        25518 
 6980000    1.0315014   -0.1970195      1728000    579.13895        34900        25555 
 6990000    1.0167935  -0.21498484      1728000    580.09597        34950        25591 
 7000000    1.0275089  -0.20760116      1728000    580.93113        35000        25634 
 7010000    0.9572727  -0.22165861      1728000    581.74828        35050        25668 
 7020000    1.0723193  -0.22401793      1728000    582.59341        35100        25705 
 7030000    1.0138869  -0.20757981      1728000    583.41558        35150        25747 
 7040000   0.98522217  -0.22756662      1728000    584.23472        35200        25784 
 7050000    1.0354957  -0.21182208      1728000     585.0399        35250        25822 
 7060000    1.0703607  -0.22503137      1728000    585.85507        35300        25851 
 7070000   0.96676327  -0.22169934      1728000    586.65926        35350        25883 
 7080000   0.96506239  -0.22955171      1728000    587.46643        35400        25921 
 7090000    1.0169382  -0.23014695      1728000    588.28159        35450        25951 
 7100000    1.0485136  -0.22954381      1728000    589.11574        35500        25985 
 7110000   0.98316851  -0.23122148      1728000    589.96688        35550        26019 
 7120000   0.97187677  -0.21655281      1728000    590.81031        35600        26054 
 7130000   0.97087402  -0.21866349      1728000    591.62562        35650        26094 
 7140000    0.9496884  -0.21874242      1728000    592.46178        35700        26127 
 7150000   0.96845885  -0.20354385      1728000    593.34986        35750        26167 
 7160000   0.97747696  -0.22464407      1728000    594.17508        35800        26203 
 7170000   0.95839418  -0.21611276      1728000    594.97194        35850        26238 
 7180000    0.9951529  -0.20145475      1728000    595.76466        35900        26275 
 7190000    1.0214646  -0.21086601      1728000     596.5631        35950        26309 
 7200000   0.99197143  -0.19842921      1728000    597.40045        36000        26349 
 7210000    0.9663901  -0.19306627      1728000    598.20402        36050        26386 
 7220000    1.0311971  -0.20278486      1728000    599.02006        36100        26419 
 7230000    1.0263173  -0.21916051      1728000    599.85528        36150        26456 
 7240000    1.0077062  -0.22187955      1728000    600.67237        36200        26493 
 7250000    0.9592759  -0.21584324      1728000    601.58412        36250        26534 
 7260000   0.98012555  -0.20394938      1728000    602.42614        36300        26574 
 7270000   0.97973386  -0.20210811      1728000    603.24794        36350        26612 
 7280000    1.0377428  -0.22818056      1728000    604.11331        36400        26649 
 7290000   0.99301232  -0.21819388      1728000    604.92998        36450        26676 
 7300000   0.96465601  -0.22628052      1728000    605.79907        36500        26708 
 7310000    1.0069018  -0.19269808      1728000    606.65659        36550        26742 
 7320000   0.97367415  -0.21274876      1728000    607.49074        36600        26780 
 7330000     1.032026  -0.21856455      1728000    608.32093        36650        26817 
 7340000   0.97922862  -0.20939416      1728000    609.13229        36700        26855 
 7350000    1.0079563  -0.20468083      1728000    609.95248        36750        26892 
 7360000    1.0296642  -0.21575083      1728000    610.77885        36800        26925 
 7370000    1.0382314  -0.21333118      1728000      611.593        36850        26963 
 7380000     0.982046  -0.21736554      1728000    612.43314        36900        26999 
 7390000    1.0278915   -0.2253542      1728000    613.27329        36950        27027 
 7400000   0.96164727  -0.22456172      1728000    614.12844        37000        27060 
 7410000   0.98598246  -0.23963068      1728000    614.94287        37050        27099 
 7420000   0.97405514  -0.22424363      1728000    615.75328        37100        27136 
 7430000    1.0339233  -0.20670217      1728000    616.55845        37150        27176 
 7440000   0.97032059  -0.19695807      1728000    617.35564        37200        27215 
 7450000   0.97669628  -0.19424772      1728000    618.15783        37250        27249 
 7460000   0.95274999  -0.19657958      1728000    618.98902        37300        27279 
 7470000   0.91708892   -0.1957209      1728000     619.7912        37350        27312 
 7480000   0.96646915  -0.20431322      1728000    620.59339        37400        27350 
 7490000   0.98092793  -0.19671199      1728000    621.39672        37450        27390 
 7500000   0.94233313  -0.19121292      1728000    622.22587        37500        27430 
 7510000    1.0057896   -0.1881659      1728000    623.04903        37550        27467 
 7520000    1.0671988  -0.19301743      1728000     623.8592        37600        27508 
 7530000   0.96221892  -0.18509337      1728000    624.66438        37650        27548 
 7540000   0.94878803  -0.19376824      1728000    625.49452        37700        27584 
 7550000     1.049622  -0.18375751      1728000    626.28991        37750        27625 
 7560000   0.98016268    -0.206795      1728000    627.08525        37800        27665 
 7570000   0.98642622  -0.19253776      1728000    627.88046        37850        27702 
 7580000    1.0338348  -0.20549001      1728000     628.6976        37900        27743 
 7590000   0.98709196  -0.21224322      1728000    629.51787        37950        27774 
 7600000   0.98124596  -0.23220151      1728000    630.33502        38000        27812 
 7610000   0.94767858  -0.22063251      1728000    631.15619        38050        27846 
 7620000     1.063772  -0.20702414      1728000    632.02229        38100        27885 
 7630000    1.0214618  -0.22075237      1728000    632.86942        38150        27916 
 7640000   0.97772123  -0.21312363      1728000    633.72954        38200        27950 
 7650000    1.0721465  -0.20144892      1728000    634.54771        38250        27986 
 7660000    1.0692817  -0.21048359      1728000    635.35888        38300        28028 
 7670000    1.0293573  -0.20234844      1728000    636.17005        38350        28060 
 7680000   0.99103052  -0.18885839      1728000    636.97323        38400        28091 
 7690000    0.9626637     -0.19075      1728000    637.77139        38450        28130 
 7700000   0.99565617  -0.20288465      1728000    638.57584        38500        28165 
 7710000   0.99297643  -0.21412994      1728000    639.41399        38550        28202 
[...]
47970000    1.0257137  -0.23170224      1728000     3946.979       239850       174347 
47980000    1.0664735  -0.22264344      1728000    3947.7875       239900       174385 
47990000    0.9562794  -0.19718834      1728000    3948.6096       239950       174426 
48000000    1.0241623  -0.20274276      1728000    3949.4577       240000       174460 
48010000   0.99826989  -0.20063812      1728000    3950.2939       240050       174496 
48020000   0.99027123  -0.21834098      1728000     3951.109       240100       174529 
48030000    1.0173844  -0.22115824      1728000    3951.9304       240150       174565 
48040000   0.97252811  -0.21866666      1728000    3952.7537       240200       174600 
48050000   0.97273303  -0.21919738      1728000    3953.5591       240250       174634 
48060000    0.9784339   -0.2067631      1728000    3954.3565       240300       174672 
48070000    1.0350045  -0.18921131      1728000    3955.1449       240350       174713 
48080000   0.97994702  -0.20044469      1728000    3955.9431       240400       174751 
48090000   0.99179451  -0.22702138      1728000    3956.7809       240450       174789 
48100000   0.99466864    -0.217471      1728000    3957.6191       240500       174820 
48110000   0.99476666  -0.22352769      1728000    3958.4357       240550       174853 
48120000   0.95843354  -0.22008912      1728000     3959.238       240600       174886 
48130000    1.0156545  -0.21709018      1728000    3960.0369       240650       174917 
48140000   0.98522949   -0.2203005      1728000    3960.8778       240700       174949 
48150000    1.0449012  -0.23196816      1728000     3961.675       240750       174986 
48160000     1.008979  -0.23280209      1728000    3962.4911       240800       175019 
48170000   0.98251856  -0.23536167      1728000     3963.341       240850       175054 
48180000    1.0140597  -0.23280007      1728000      3964.17       240900       175090 
48190000    1.0137039  -0.21255118      1728000     3964.969       240950       175126 
48200000    1.0184511  -0.22105537      1728000    3965.8361       241000       175160 
48210000    1.0325287  -0.20200941      1728000    3966.6646       241050       175194 
48220000   0.94334146  -0.20984835      1728000    3967.5549       241100       175228 
48230000   0.92515151  -0.20999343      1728000    3968.4818       241150       175258 
48240000   0.98605396  -0.21616692      1728000    3969.3059       241200       175296 
48250000    1.0439906  -0.20281385      1728000    3970.1291       241250       175330 
48260000   0.96682871  -0.20081704      1728000    3970.9723       241300       175369 
48270000    1.0466535  -0.22114299      1728000    3971.7945       241350       175407 
48280000   0.93026371  -0.21075081      1728000    3972.6546       241400       175451 
48290000    1.0008385  -0.19686409      1728000    3973.4758       241450       175489 
48300000   0.97538977  -0.23484381      1728000     3974.287       241500       175527 
48310000    1.0371767  -0.20572054      1728000    3975.1332       241550       175561 
48320000   0.96733295  -0.18005721      1728000    3975.9803       241600       175596 
48330000    1.0070298  -0.17806645      1728000    3976.8584       241650       175632 
48340000   0.96525268  -0.17515508      1728000    3977.6826       241700       175675 
48350000    1.0274951  -0.17589395      1728000    3978.5127       241750       175715 
48360000    1.0735009  -0.17766058      1728000    3979.3563       241800       175748 
48370000    1.0032349  -0.19251109      1728000    3980.1699       241850       175785 
48380000    1.0165509  -0.17732615      1728000    3981.0565       241900       175823 
48390000   0.98627008   -0.1998915      1728000    3981.8529       241950       175863 
48400000   0.92697445   -0.2034937      1728000    3982.6672       242000       175899 
48410000    1.0257025  -0.20696043      1728000    3983.4963       242050       175934 
48420000    1.0312041  -0.19157249      1728000    3984.2985       242100       175977 
48430000    1.0023142  -0.20001253      1728000    3985.0957       242150       176013 
48440000    1.0148752  -0.21610818      1728000    3985.8979       242200       176053 
48450000    1.0116231  -0.21184048      1728000    3986.7179       242250       176093 
48460000      1.02405  -0.19212536      1728000    3987.5289       242300       176131 
48470000   0.98468874  -0.20626709      1728000    3988.3519       242350       176169 
48480000    1.0159678   -0.2122726      1728000    3989.1618       242400       176212 
48490000    0.9658021  -0.22147606      1728000    3989.9691       242450       176250 
48500000     1.006331  -0.19987367      1728000    3990.7981       242500       176286 
48510000   0.97268532  -0.20674185      1728000    3991.6112       242550       176323 
48520000    1.0422445  -0.23208142      1728000    3992.4299       242600       176364 
48530000    1.0386175  -0.20985845      1728000     3993.288       242650       176398 
48540000    1.0813707  -0.20957206      1728000    3994.1071       242700       176434 
48550000    1.0077602  -0.20251845      1728000    3994.9543       242750       176471 
48560000    1.0232618  -0.21493363      1728000    3995.8036       242800       176513 
48570000     1.036868  -0.20728796      1728000    3996.6287       242850       176549 
48580000    1.0291311  -0.22228466      1728000    3997.4369       242900       176586 
48590000    1.0119344  -0.21455734      1728000    3998.2721       242950       176623 
48600000   0.99302607  -0.20810024      1728000    3999.1621       243000       176656 
48610000    1.0435721  -0.21093288      1728000    4000.0762       243050       176688 
48620000   0.97977144  -0.19740397      1728000    4000.9703       243100       176722 
48630000    1.0122805   -0.2127045      1728000    4001.9383       243150       176756 
48640000   0.97290506  -0.20954398      1728000    4002.7794       243200       176796 
48650000    1.0909042   -0.2188448      1728000    4003.6036       243250       176829 
48660000   0.98564023  -0.21274352      1728000    4004.4497       243300       176857 
48670000    1.0840288  -0.23274442      1728000    4005.3058       243350       176886 
48680000    1.0182417  -0.21755583      1728000     4006.127       243400       176918 
48690000   0.99215603  -0.21504804      1728000    4007.0093       243450       176952 
48700000   0.94646547  -0.21230718      1728000    4007.8575       243500       176990 
48710000   0.96452497  -0.21265488      1728000    4008.6766       243550       177032 
48720000   0.98954641  -0.22304397      1728000    4009.4857       243600       177065 
48730000    1.0082312  -0.21764777      1728000    4010.3232       243650       177104 
48740000    1.0347067  -0.21755497      1728000    4011.1225       243700       177144 
48750000    1.0030699   -0.2023341      1728000    4011.9168       243750       177182 
48760000    1.0250641  -0.20540848      1728000    4012.7387       243800       177219 
48770000    1.0151765  -0.20915404      1728000    4013.5768       243850       177258 
48780000    1.0692124  -0.21422222      1728000    4014.3889       243900       177298 
48790000   0.98828146  -0.21830086      1728000    4015.2549       243950       177332 
48800000    1.0116996  -0.20823912      1728000    4016.1052       244000       177366 
48810000    1.0050751  -0.21698937      1728000    4016.9174       244050       177403 
48820000   0.98766348  -0.21414003      1728000    4017.7435       244100       177443 
48830000    1.0375076  -0.21495393      1728000    4018.6865       244150       177485 
48840000    1.0251979  -0.21217089      1728000    4019.5367       244200       177522 
48850000    1.0189073  -0.20179767      1728000    4020.4018       244250       177562 
48860000    1.0020435  -0.19106267      1728000    4021.2439       244300       177596 
48870000   0.98150805  -0.18223017      1728000    4022.0621       244350       177635 
48880000   0.97900966  -0.21461812      1728000    4022.8747       244400       177672 
48890000   0.92053404  -0.19492901      1728000    4023.6979       244450       177708 
48900000    1.0014959  -0.19871146      1728000    4024.5419       244500       177750 
48910000   0.97951976  -0.19644626      1728000    4025.3751       244550       177782 
48920000   0.94627703  -0.17727249      1728000    4026.1863       244600       177814 
48930000    1.0390496  -0.19560903      1728000    4027.0226       244650       177849 
48940000     1.015856  -0.17950463      1728000    4027.8638       244700       177884 
48950000    1.0148588  -0.20128879      1728000    4028.7129       244750       177922 
48960000    1.0353147   -0.2094018      1728000    4029.5291       244800       177956 
48970000   0.97356979  -0.20289057      1728000    4030.3343       244850       177995 
48980000    1.0116657  -0.20796308      1728000    4031.1458       244900       178030 
48990000   0.98761786  -0.22529593      1728000    4031.9758       244950       178066 
49000000   0.96048454  -0.24699411      1728000    4032.8075       245000       178105 
49010000    1.0398227  -0.24202692      1728000    4033.7208       245050       178140 
49020000    0.9967583  -0.25861126      1728000    4034.6138       245100       178173 
49030000     1.016501  -0.24175021      1728000    4035.5539       245150       178211 
49040000   0.95232682  -0.23027071      1728000     4036.387       245200       178245 
49050000    1.0131918  -0.23070044      1728000    4037.2471       245250       178274 
49060000    0.9065849  -0.24880111      1728000    4038.1362       245300       178307 
49070000     1.002501  -0.24602999      1728000    4039.0263       245350       178345 
49080000    0.9761746  -0.21850304      1728000    4039.9514       245400       178380 
49090000    1.0002077  -0.23422732      1728000    4040.9364       245450       178417 
49100000    1.0106274  -0.21542927      1728000    4041.8005       245500       178446 
49110000   0.99019798   -0.2231422      1728000    4042.6357       245550       178485 
49120000   0.94346542  -0.21495298      1728000    4043.5557       245600       178519 
49130000    1.0351242  -0.21824352      1728000    4044.3989       245650       178559 
49140000     0.966349  -0.22179034      1728000     4045.259       245700       178601 
49150000    0.9909232  -0.21847072      1728000    4046.0652       245750       178639 
49160000   0.95875299  -0.22986247      1728000    4046.9932       245800       178673 
49170000    1.0110098  -0.22550089      1728000    4047.8963       245850       178713 
49180000   0.98340985  -0.21516519      1728000    4048.7364       245900       178748 
49190000    1.0027443   -0.2023007      1728000    4049.6235       245950       178783 
49200000   0.96933588   -0.2093297      1728000    4050.4427       246000       178818 
49210000   0.97587792  -0.23105318      1728000    4051.2949       246050       178853 
49220000    1.0410063  -0.21956397      1728000    4052.1241       246100       178882 
49230000    1.0353064  -0.22892992      1728000    4052.9629       246150       178920 
49240000    1.0093793  -0.22681487      1728000    4053.8008       246200       178958 
49250000    0.9703651  -0.22884404      1728000    4054.6116       246250       178997 
49260000   0.95334329   -0.2460885      1728000    4055.4748       246300       179029 
49270000   0.98048612  -0.21891894      1728000     4056.304       246350       179064 
49280000    1.0148245  -0.22728863      1728000    4057.1349       246400       179098 
49290000    1.0187477  -0.24064698      1728000    4058.0202       246450       179136 
49300000   0.98649393   -0.2340892      1728000    4058.8993       246500       179167 
49310000   0.97377311   -0.2126122      1728000    4059.8044       246550       179207 
49320000   0.99453298  -0.22303391      1728000    4060.6375       246600       179243 
49330000   0.97203562  -0.21427008      1728000    4061.4826       246650       179283 
49340000   0.93706569  -0.20026024      1728000    4062.3289       246700       179324 
49350000   0.99932887  -0.20927107      1728000    4063.2059       246750       179364 
49360000   0.98711084  -0.20043158      1728000     4064.088       246800       179395 
49370000   0.98851328  -0.19649069      1728000    4064.9012       246850       179431 
49380000     1.098531  -0.19680724      1728000    4065.7054       246900       179462 
49390000   0.99511447  -0.19823134      1728000    4066.5396       246950       179500 
49400000     1.033507  -0.20366621      1728000    4067.3587       247000       179540 
49410000    1.0810912  -0.21864595      1728000    4068.1849       247050       179580 
49420000   0.99686658  -0.21691856      1728000     4069.045       247100       179616 
49430000    1.0215891  -0.23001185      1728000    4069.8812       247150       179648 
49440000    1.0285817  -0.21422367      1728000    4070.7136       247200       179681 
49450000    1.0075158  -0.21330626      1728000    4071.5543       247250       179714 
49460000   0.99471352  -0.20801882      1728000    4072.3978       247300       179745 
49470000    1.0163325  -0.20900503      1728000     4073.249       247350       179776 
49480000   0.96152719  -0.20321045      1728000    4074.0458       247400       179812 
49490000    1.0225212  -0.21858279      1728000    4074.8692       247450       179847 
49500000    1.0258859   -0.2043736      1728000    4075.7126       247500       179884 
49510000   0.98891556  -0.19393554      1728000    4076.5208       247550       179920 
49520000   0.98711312  -0.19864187      1728000     4077.363       247600       179955 
49530000    1.1038303  -0.20039461      1728000    4078.2192       247650       179985 
49540000   0.96784687  -0.19699974      1728000    4079.0743       247700       180018 
49550000   0.98210364  -0.21292182      1728000    4079.8994       247750       180057 
49560000    1.0483088  -0.20393788      1728000    4080.7375       247800       180095 
49570000   0.93678454  -0.19754664      1728000    4081.5538       247850       180133 
49580000    1.0387701  -0.20336916      1728000    4082.3657       247900       180174 
49590000   0.94369055  -0.21111603      1728000    4083.1996       247950       180207 
49600000    1.0026992  -0.23200777      1728000    4084.0289       248000       180244 
49610000     1.006082  -0.21497148      1728000    4084.8496       248050       180278 
49620000    1.0138841  -0.20703893      1728000    4085.7038       248100       180316 
49630000    1.0431588  -0.19409292      1728000    4086.5198       248150       180349 
49640000    1.0431128  -0.18745985      1728000    4087.3256       248200       180386 
49650000   0.97749203   -0.1748412      1728000    4088.1325       248250       180418 
49660000   0.99289033  -0.19490208      1728000    4088.9569       248300       180454 
49670000     0.925976  -0.19559906      1728000    4089.7627       248350       180492 
49680000   0.98093448  -0.19201498      1728000    4090.5618       248400       180524 
49690000    1.0005105  -0.19192876      1728000    4091.3538       248450       180560 
49700000   0.98930753  -0.19181596      1728000    4092.1696       248500       180600 
49710000    1.0007219  -0.20865522      1728000    4092.9697       248550       180640 
49720000    1.0453889  -0.23532331      1728000    4093.7817       248600       180680 
49730000    0.9804013  -0.20723821      1728000     4094.592       248650       180722 
49740000    1.0310476  -0.20602062      1728000    4095.4057       248700       180762 
49750000    1.0309478  -0.21432548      1728000    4096.2106       248750       180798 
49760000    1.0056774  -0.21411285      1728000    4097.0185       248800       180833 
49770000    1.0221028  -0.21518284      1728000    4097.8388       248850       180864 
49780000   0.95804461  -0.21630921      1728000    4098.6417       248900       180903 
49790000   0.98645269  -0.20281243      1728000    4099.4408       248950       180937 
49800000   0.89067609  -0.19910903      1728000    4100.2618       249000       180974 
49810000    1.0378131  -0.19132062      1728000    4101.0547       249050       181006 
49820000   0.93266066  -0.19735046      1728000    4101.8447       249100       181044 
49830000     1.043875  -0.19594042      1728000    4102.6708       249150       181080 
49840000   0.99040991  -0.19899431      1728000    4103.4739       249200       181115 
49850000   0.97162533  -0.18290276      1728000    4104.2777       249250       181150 
49860000    1.0117554  -0.20792014      1728000    4105.0879       249300       181187 
49870000    1.0112852  -0.19577223      1728000    4105.8877       249350       181223 
49880000     0.974486  -0.18648606      1728000    4106.7178       249400       181264 
49890000   0.99597342  -0.20139947      1728000     4107.538       249450       181304 
49900000   0.99314827  -0.18800947      1728000    4108.3487       249500       181342 
49910000   0.98775198  -0.20605977      1728000    4109.1752       249550       181384 
49920000   0.95305449  -0.21588382      1728000    4109.9786       249600       181419 
49930000    1.0393533   -0.2068349      1728000    4110.7811       249650       181448 
49940000    0.9939399  -0.21023457      1728000    4111.5815       249700       181486 
49950000   0.98529181  -0.22562793      1728000    4112.3838       249750       181523 
49960000   0.98276336  -0.22224928      1728000    4113.2008       249800       181554 
49970000   0.96765776  -0.23043488      1728000    4114.0018       249850       181591 
49980000    1.0010507  -0.21674309      1728000     4114.858       249900       181628 
49990000    1.0269336  -0.21844293      1728000    4115.6581       249950       181667 
50000000   0.99700774  -0.22231616      1728000    4116.4707       250000       181695 
Loop time of 4116.47 on 1 procs for 50000000 steps with 500 atoms

Performance: 10494421.613 tau/day, 12146.321 timesteps/s
99.1% CPU use with 1 MPI tasks x 1 OpenMP threads

MPI task timing breakdown:
Section |  min time  |  avg time  |  max time  |%varavg| %total
---------------------------------------------------------------
Pair    | 684.14     | 684.14     | 684.14     |   0.0 | 16.62
Bond    | 1078.1     | 1078.1     | 1078.1     |   0.0 | 26.19
Neigh   | 807.44     | 807.44     | 807.44     |   0.0 | 19.61
Comm    | 32.748     | 32.748     | 32.748     |   0.0 |  0.80
Output  | 15.059     | 15.059     | 15.059     |   0.0 |  0.37
Modify  | 1442.4     | 1442.4     | 1442.4     |   0.0 | 35.04
Other   |            | 56.58      |            |       |  1.37

Nlocal:    500 ave 500 max 500 min
Histogram: 1 0 0 0 0 0 0 0 0 0
Nghost:    0 ave 0 max 0 min
Histogram: 1 0 0 0 0 0 0 0 0 0
Neighs:    1371 ave 1371 max 1371 min
Histogram: 1 0 0 0 0 0 0 0 0 0

Total # of neighbors = 1371
Ave neighs/atom = 2.742
Ave special neighs/atom = 5.976
Neighbor list builds = 2623745
Dangerous builds = 0

################
## ULOOP    ####
################
clear
OMP_NUM_THREADS environment is not set. Defaulting to 1 thread. (../comm.cpp:87)
  using 1 OpenMP thread(s) per MPI task
variable rname delete
variable simname delete
variable folder delete
variable seed delete
variable E delete
variable RW delete
variable SimOutType delete
variable SimInType delete
variable jn delete
variable jf delete

next jbn
Increment via next: value 2 on partition 0
jump SELF #last line!!!

### If e.g. I run this on 10 partitions of 1 processor,
### and initialise the variable with 'uloop N'
### it will run 10 simulations with 'jobnumber' taking
### values 1-10. Then when a particular simulation finishes, the
### script will be run again with the next value of jobnumber,
### until N simulations have been run.
## SO ULOOP IS "SERIAL" BUT FOR SURE 10x1 PROCs ARE ALWAYS BUSY
Total wall time: 1:08:46
