LAMMPS (1 Feb 2019)
OMP_NUM_THREADS environment is not set. Defaulting to 1 thread. (../comm.cpp:87)
  using 1 OpenMP thread(s) per MPI task
####################################
####	ULOOP			####
####################################
variable jbn uloop 1  # run n simulations
variable startfrom equal 0
variable jn equal ${jbn}+${startfrom}
variable jn equal 1+${startfrom}
variable jn equal 1+0
print ${jn}
print 1
1
variable seed equal (${jn}+4)*51-2*${jbn}
variable seed equal (1+4)*51-2*${jbn}
variable seed equal (1+4)*51-2*1
variable seedr equal (${jn}+2)*22
variable seedr equal (1+2)*22

#
variable N equal 2000
timestep 0.01
variable Dt equal 100000
variable Temp equal 1.0
variable Norm equal 0.88585294441338
if "${jn} <= 2" then "variable E equal 1.3"
variable E equal 1.3
if "${jn} > 2 && ${jn} <= 4" then "variable E equal 1.5"
if "${jn} > 4 && ${jn} <= 6" then "variable E equal 2.0"
if "${jn} > 6 && ${jn} <= 8" then "variable E equal 2.5"
if "${jn} > 8 && ${jn} <= 10" then "variable E equal 3.0"
if "${jn} > 10 && ${jn} <= 12" then "variable E equal 3.5"
if "${jn} > 12 && ${jn} <= 14" then "variable E equal 4.0"
if "${jn} > 14 && ${jn} <= 16" then "variable E equal 4.5"
if "${jn} > 16 && ${jn} <= 18" then "variable E equal 5.0"

#
####################################
####	DEFINTIONS 	########
####################################
#
variable N equal 500
variable folder index RW_Dt${Dt}_E${E}
variable folder index RW_Dt100000_E${E}
variable folder index RW_Dt100000_E1.3
shell mkdir ${folder}
shell mkdir RW_Dt100000_E1.3
variable SimOutType index RW${jn}Dt${Dt}E${E}
variable SimOutType index RW1Dt${Dt}E${E}
variable SimOutType index RW1Dt100000E${E}
variable SimOutType index RW1Dt100000E1.3
variable rname index INIT/Poly.N${N}.dat
variable rname index INIT/Poly.N500.dat
variable simname index Poly.N${N}.${SimOutType}
variable simname index Poly.N500.${SimOutType}
variable simname index Poly.N500.RW1Dt100000E1.3
#
units lj
atom_style angle
boundary        p p p
neighbor 1.3 bin
neigh_modify every 5 delay 5 check yes
#
restart 1000000 ${folder}/Restart.neutr.${simname}.
restart 1000000 RW_Dt100000_E1.3/Restart.neutr.${simname}.
restart 1000000 RW_Dt100000_E1.3/Restart.neutr.Poly.N500.RW1Dt100000E1.3.
print ${rname}
print INIT/Poly.N500.dat
INIT/Poly.N500.dat
read_data ${rname}
read_data INIT/Poly.N500.dat
  orthogonal box = (-50 -50 -50) to (50 50 50)
  1 by 1 by 1 MPI processor grid
  reading atoms ...
  500 atoms
  scanning bonds ...
  1 = max bonds/atom
  scanning angles ...
  1 = max angles/atom
  reading bonds ...
  499 bonds
  reading angles ...
  498 angles
  2 = max # of 1-2 neighbors
  2 = max # of 1-3 neighbors
  4 = max # of 1-4 neighbors
  6 = max # of special neighbors

####################################
####	GROUPS	             #######
####################################
group blue type 1
500 atoms in group blue
group red type 2
0 atoms in group red
group grey type 3
0 atoms in group grey

change_box all x final -60 60 y final -60 60 z final -60 60 boundary f f f units box
  orthogonal box = (-60 -50 -50) to (60 50 50)
  orthogonal box = (-60 -60 -50) to (60 60 50)
  orthogonal box = (-60 -60 -60) to (60 60 60)

####################################
####	ANGLE	             #######
####################################
angle_style   cosine
angle_coeff  1 3.0  #20 sigma for realistic DNA (1 bead = 2.5 nm)

####################################
####	PAIRS	             #######
####################################
pair_style  soft 2.5
pair_modify     shift yes
pair_coeff      * * 20 1.12246152962189

variable prefactor equal ramp(0,50)
fix pushapart all adapt 1 pair soft a * * v_prefactor

####################################
####	FENE	             #######
####################################
bond_style   fene
special_bonds fene#<=== I M P O R T A N T (new command)
  2 = max # of 1-2 neighbors
  6 = max # of special neighbors
bond_coeff   1  30.0   1.6  1.0  1.0

####################################
####	FIXES	             #######
####################################
fix 1 all   nve
fix 2 all  langevin   1.0 1.0   1.0   ${seed}
fix 2 all  langevin   1.0 1.0   1.0   253

####################################
####	WALL	             #######
####################################
fix WALL all wall/lj126 xhi EDGE 1.0 1.0 1.122462048 xlo EDGE 1.0 1.0 1.122462048 yhi EDGE 1.0 1.0 1.122462048 ylo EDGE 1.0 1.0 1.122462048 zhi EDGE 1.0 1.0 1.122462048 zlo EDGE 1.0 1.0 1.122462048 units box

####################################
####	RESET TIME             #######
####################################
reset_timestep 0

####################################
####	SWAP - ATOMS         #######
####################################
##HERE I USE fix atom/swap to attempt an atom swap between types
## In theory, I don't need to do a loop as the fix does it every
## N timesteps
##FIRST Dt IS NOT SWAPPING ANYWAY!
group Polymer type 1 2 3
500 atoms in group Polymer
fix Aswap Polymer atom/swap ${Dt} ${N} ${seed} ${Temp} semi-grand yes types 1 2 3 mu 0.0 0.0 0.0
fix Aswap Polymer atom/swap 100000 ${N} ${seed} ${Temp} semi-grand yes types 1 2 3 mu 0.0 0.0 0.0
fix Aswap Polymer atom/swap 100000 500 ${seed} ${Temp} semi-grand yes types 1 2 3 mu 0.0 0.0 0.0
fix Aswap Polymer atom/swap 100000 500 253 ${Temp} semi-grand yes types 1 2 3 mu 0.0 0.0 0.0
fix Aswap Polymer atom/swap 100000 500 253 1 semi-grand yes types 1 2 3 mu 0.0 0.0 0.0
variable Swaps equal f_Aswap[2]/1.0
variable Attempts equal f_Aswap[1]/1.0

####################################
####    THERMO AND INTEGRATION
####################################
timestep 0.01
thermo 10000
thermo_style   custom   step  temp  epair vol cpu v_Attempts v_Swaps

####################################
####	EQUILIBRATION        #######
####################################
#THIS IS TO TEST
#PUT LARGER NUMBER WHEN DOING ACTUAL SIMULATIONS
run 100000
Neighbor list info ...
  update every 5 steps, delay 5 steps, check yes
  max neighbors/atom: 2000, page size: 100000
  master list distance cutoff = 2.42246
  ghost atom cutoff = 2.42246
  binsize = 1.21123, bins = 100 100 100
  1 neighbor lists, perpetual/occasional/extra = 1 0 0
  (1) pair soft, perpetual
      attributes: half, newton on
      pair build: half/bin/newton
      stencil: half/bin/3d/newton
      bin: standard
Per MPI rank memory allocation (min/avg/max) = 9.234 | 9.234 | 9.234 Mbytes
Step Temp E_pair Volume CPU v_Attempts v_Swaps 
       0            0            0      1728000            0            0            0 
   10000    1.0294079 0.0064934185      1728000     1.180871          500          500 
   20000    0.9987672   0.01265543      1728000    2.2045979          500          500 
   30000    1.0377049 0.0053002516      1728000    3.2138898          500          500 
   40000   0.96298537   0.00420477      1728000    4.1778889          500          500 
   50000   0.95514074 4.5880284e-05      1728000    5.1284449          500          500 
   60000   0.97827728 4.9670865e-05      1728000    6.1017709          500          500 
   70000   0.96772811 0.00068691548      1728000    7.0618229          500          500 
   80000    1.0272917 0.0015087736      1728000    7.9881868          500          500 
   90000    1.0539828 0.0015163033      1728000     8.945904          500          500 
  100000   0.98519253 0.0023363482      1728000    9.8698449          500          500 
Loop time of 9.87184 on 1 procs for 100000 steps with 500 atoms

Performance: 8752166.091 tau/day, 10129.822 timesteps/s
99.7% CPU use with 1 MPI tasks x 1 OpenMP threads

MPI task timing breakdown:
Section |  min time  |  avg time  |  max time  |%varavg| %total
---------------------------------------------------------------
Pair    | 0.65251    | 0.65251    | 0.65251    |   0.0 |  6.61
Bond    | 2.7302     | 2.7302     | 2.7302     |   0.0 | 27.66
Neigh   | 3.2095     | 3.2095     | 3.2095     |   0.0 | 32.51
Comm    | 0.14573    | 0.14573    | 0.14573    |   0.0 |  1.48
Output  | 0.020964   | 0.020964   | 0.020964   |   0.0 |  0.21
Modify  | 2.9699     | 2.9699     | 2.9699     |   0.0 | 30.08
Other   |            | 0.143      |            |       |  1.45

Nlocal:    500 ave 500 max 500 min
Histogram: 1 0 0 0 0 0 0 0 0 0
Nghost:    0 ave 0 max 0 min
Histogram: 1 0 0 0 0 0 0 0 0 0
Neighs:    847 ave 847 max 847 min
Histogram: 1 0 0 0 0 0 0 0 0 0

Total # of neighbors = 847
Ave neighs/atom = 1.694
Ave special neighs/atom = 1.996
Neighbor list builds = 4475
Dangerous builds = 0


unfix pushapart
unfix Aswap
reset_timestep 0

#######################################################
####	PAIRS -- REPULSIVE + REDS FERROMAGN 	#######
#######################################################
#ENERGYSCALE
variable Et equal ${E}/${Norm}
variable Et equal 1.3/${Norm}
variable Et equal 1.3/0.88585294441338

pair_style  lj/cut 1.8
pair_modify     shift yes
pair_coeff      * *  1.0 1.0 1.12246152962189

pair_coeff      1 1  ${Et} 1.0 1.8
pair_coeff      1 1  1.46751219623802 1.0 1.8
pair_coeff      1 2  1.0 1.0 1.12246152962189
pair_coeff      1 3  1.0 1.0 1.12246152962189

pair_coeff      2 2  ${Et} 1.0 1.8
pair_coeff      2 2  1.46751219623802 1.0 1.8
pair_coeff      2 3  1.0 1.0 1.12246152962189

pair_coeff      3 3  1.0 1.0 1.12246152962189
#######################################################


########################
## PER PRIMI VICINI   ##
########################
bond_style harmonic
special_bonds lj 1 1 1
  2 = max # of 1-2 neighbors
  2 = max # of 1-3 neighbors
  4 = max # of 1-4 neighbors
  6 = max # of special neighbors
bond_coeff 1 200 1.12246
#bond_style fene
#special_bonds fene
#bond_coeff 1 30 1.6 1.0 1.0

########################
## RECOLOR #############
########################
group Polymer type 1 2 3
500 atoms in group Polymer
variable smooth equal 10
variable dtsmooth equal ${Dt}/${smooth}
variable dtsmooth equal 100000/${smooth}
variable dtsmooth equal 100000/10
variable Nsmooth equal ${N}/${smooth}
variable Nsmooth equal 500/${smooth}
variable Nsmooth equal 500/10
fix Aswap Polymer atom/swap ${dtsmooth} ${Nsmooth} ${seedr} ${Temp} semi-grand yes types 1 2 3 mu 0.0 0.0 0.0
fix Aswap Polymer atom/swap 10000 ${Nsmooth} ${seedr} ${Temp} semi-grand yes types 1 2 3 mu 0.0 0.0 0.0
fix Aswap Polymer atom/swap 10000 50 ${seedr} ${Temp} semi-grand yes types 1 2 3 mu 0.0 0.0 0.0
fix Aswap Polymer atom/swap 10000 50 66 ${Temp} semi-grand yes types 1 2 3 mu 0.0 0.0 0.0
fix Aswap Polymer atom/swap 10000 50 66 1 semi-grand yes types 1 2 3 mu 0.0 0.0 0.0
variable Swaps equal f_Aswap[2]/1.0
variable Attempts equal f_Aswap[1]/1.0

####################################
####    DUMPS                 #######
####################################
##VMD
#dump 1 all custom 1000 ${folder}/${simname}.lammpstrj id mol type x y z
#dump_modify  1   format "%d %d %d %.5f %.5f %.5f"

##DAT
dump 2 all custom 100000 ${folder}/${simname}.* id type x y z ix iy iz
dump 2 all custom 100000 RW_Dt100000_E1.3/${simname}.* id type x y z ix iy iz
dump 2 all custom 100000 RW_Dt100000_E1.3/Poly.N500.RW1Dt100000E1.3.* id type x y z ix iy iz
#dump_modify   2   format "%d %d %.5f %.5f %.5f %d %d %d"

##CFG
#dump 3 all cfg 1000 ${folder}/CFG/${simname}.tot.*.cfg mass type xs ys zs id mol type
#dump_modify 3 element N C O Ca Xe

##XYZ
dump 4 all xyz 100000 XYZ_${simname}.xyz
dump 4 all xyz 100000 XYZ_Poly.N500.RW1Dt100000E1.3.xyz
dump_modify 4 element C O N Xe

###########################
thermo 10000
thermo_style   custom   step  temp  epair vol cpu v_Attempts v_Swaps
run 50000000
Neighbor list info ...
  update every 5 steps, delay 5 steps, check yes
  max neighbors/atom: 2000, page size: 100000
  master list distance cutoff = 3.1
  ghost atom cutoff = 3.1
  binsize = 1.55, bins = 78 78 78
  1 neighbor lists, perpetual/occasional/extra = 1 0 0
  (1) pair lj/cut, perpetual
      attributes: half, newton on
      pair build: half/bin/newton
      stencil: half/bin/3d/newton
      bin: standard
Per MPI rank memory allocation (min/avg/max) = 9.566 | 9.566 | 9.566 Mbytes
Step Temp E_pair Volume CPU v_Attempts v_Swaps 
       0   0.98519253     2.198734      1728000            0            0            0 
   10000    1.0157102  -0.53198923      1728000   0.92110205           50           40 
   20000    0.9582274   -0.5466142      1728000    1.8541141          100           77 
   30000   0.99421807  -0.67944232      1728000    2.8124049          150          103 
   40000   0.90502405  -0.71448743      1728000     3.774776          200          131 
   50000    1.0453831  -0.72402736      1728000    4.7740431          250          162 
   60000    1.0248143  -0.71118922      1728000    5.7680719          300          186 
   70000     1.045809  -0.97398313      1728000      6.78933          350          211 
   80000    1.0278733   -1.1273025      1728000     7.898876          400          231 
   90000   0.97448153   -1.1214936      1728000    9.0258529          450          254 
  100000    1.0240108   -1.2004311      1728000    10.130958          500          280 
  110000    1.0480367   -1.2118862      1728000    11.278754          550          300 
  120000    1.0254812   -1.3717067      1728000    12.400147          600          327 
  130000   0.94387018   -1.5458041      1728000    13.603004          650          348 
  140000   0.94573199   -1.6364926      1728000    14.842784          700          365 
  150000   0.94378694   -1.6570247      1728000    16.082129          750          383 
  160000    1.0483258   -1.8483461      1728000    17.401922          800          401 
  170000   0.96010332   -1.6996192      1728000    18.736134          850          412 
  180000   0.94746764    -1.896612      1728000    20.050887          900          426 
  190000    1.0121716   -1.8831541      1728000    21.410734          950          445 
  200000       1.0488   -1.8183787      1728000    22.773063         1000          462 
  210000   0.98460847   -1.6968886      1728000    24.079858         1050          477 
  220000    1.0228371   -1.8812692      1728000     25.41035         1100          492 
  230000   0.97843803   -1.9223978      1728000    26.723914         1150          505 
  240000    1.0035235   -2.1632861      1728000    28.073059         1200          521 
  250000   0.97721716   -1.9591982      1728000    29.470824         1250          535 
  260000   0.93140656    -2.057679      1728000    30.877325         1300          550 
  270000   0.99075924   -2.1609296      1728000    32.288187         1350          560 
  280000   0.96926918   -2.1874278      1728000    33.684063         1400          573 
  290000    1.0541578   -2.3205956      1728000    35.098975         1450          585 
  300000    1.0128884   -2.2090116      1728000    36.568259         1500          595 
  310000   0.98976483   -2.3678954      1728000    38.003979         1550          609 
  320000   0.97209481   -2.3584961      1728000    39.464218         1600          617 
  330000    0.9561459   -2.3506753      1728000    40.925021         1650          627 
  340000     1.032179   -2.5045055      1728000    42.438705         1700          639 
  350000   0.98036396   -2.3370023      1728000    44.009974         1750          646 
  360000    1.1081141   -2.7381678      1728000    45.572081         1800          653 
  370000    1.0343683   -2.5455432      1728000    47.210106         1850          661 
  380000    1.0449931   -2.7421467      1728000    48.909961         1900          666 
  390000   0.95803164   -2.7296318      1728000    50.568045         1950          677 
  400000   0.97537729   -2.6782696      1728000    52.301221         2000          690 
  410000   0.94240883   -2.8000576      1728000    53.963077         2050          696 
  420000    1.0473159   -2.8100853      1728000    55.589561         2100          703 
  430000   0.96041572   -2.8943657      1728000    57.229007         2150          709 
  440000     1.038286    -3.010498      1728000    58.913888         2200          714 
  450000    1.0778004   -3.0154095      1728000    60.632359         2250          719 
  460000   0.95476371   -3.1549337      1728000    62.368821         2300          721 
  470000    1.0531563   -3.0232936      1728000    64.076394         2350          726 
  480000    1.0086663   -2.9828027      1728000    65.773602         2400          729 
  490000   0.94942341   -2.8803191      1728000    67.478121         2450          736 
  500000   0.99231015   -2.9339054      1728000    69.211057         2500          742 
  510000    1.0118427   -3.0277275      1728000    70.868888         2550          752 
  520000   0.97814227   -3.2033776      1728000    72.570115         2600          758 
  530000    0.9939091   -2.9980881      1728000    74.283173         2650          761 
  540000   0.98351694   -3.0654257      1728000    76.037075         2700          769 
  550000   0.96789998   -3.0865715      1728000    77.788111         2750          774 
  560000    1.0070205   -3.2597892      1728000    79.547077         2800          777 
  570000     1.022322   -3.1087955      1728000    81.289383         2850          780 
  580000   0.99108042    -3.171273      1728000    83.000108         2900          785 
  590000   0.95354268   -3.1247288      1728000    84.728757         2950          793 
  600000    1.0099374   -3.1443763      1728000    86.525782         3000          799 
  610000   0.98768689   -3.2585533      1728000    88.245272         3050          806 
  620000   0.96243862   -3.3114134      1728000    89.972826         3100          813 
  630000     1.010928   -3.3467221      1728000    91.773382         3150          818 
  640000    1.0325437   -3.3032214      1728000    93.488204         3200          821 
  650000   0.98280197   -3.3821458      1728000    95.236452         3250          826 
  660000   0.96650104   -3.4596865      1728000    97.003788         3300          832 
  670000     1.063344   -3.4105411      1728000    98.758212         3350          837 
  680000   0.99010038    -3.325869      1728000    100.52188         3400          843 
  690000   0.95709703   -3.4817907      1728000    102.33205         3450          852 
  700000   0.93518384   -3.5939404      1728000    104.14657         3500          855 
  710000    1.0050464   -3.6271474      1728000    105.96274         3550          858 
  720000   0.97486872   -3.4858554      1728000    107.81384         3600          860 
  730000    1.0611206   -3.6035925      1728000    109.69495         3650          862 
  740000   0.96695325   -3.6841379      1728000    111.59512         3700          866 
  750000   0.97291851   -3.5835873      1728000    113.46284         3750          870 
  760000   0.98030373   -3.6460419      1728000    115.32825         3800          874 
  770000    1.0712024   -3.5910427      1728000    117.17149         3850          878 
  780000   0.98928832   -3.8040416      1728000    119.05064         3900          880 
  790000   0.99905329   -3.6250357      1728000    120.92242         3950          883 
  800000   0.97410836   -3.7353787      1728000    122.78918         4000          887 
  810000   0.97322366    -3.727017      1728000    124.62045         4050          893 
  820000   0.99330432    -3.588628      1728000    126.52026         4100          894 
  830000   0.92944536   -3.7682006      1728000    128.38404         4150          895 
  840000     1.014194   -3.7211331      1728000    130.24424         4200          898 
  850000    0.9483795   -3.7968013      1728000    132.09557         4250          901 
  860000    1.0185526   -3.7654858      1728000    133.93051         4300          902 
  870000   0.96199202   -3.7427735      1728000    135.86588         4350          904 
  880000    1.0561663   -3.6568931      1728000    137.71505         4400          907 
  890000    1.0188115    -3.755693      1728000    139.57082         4450          910 
  900000    1.0316173   -3.7687998      1728000    141.46337         4500          913 
  910000   0.98991914   -3.8492378      1728000    143.31253         4550          914 
  920000   0.99327125    -3.619037      1728000    145.18018         4600          916 
  930000    1.0076592   -3.7216995      1728000    147.00362         4650          919 
  940000    1.0072126   -3.6973797      1728000    148.84723         4700          921 
  950000   0.99012174   -3.7184354      1728000    150.74534         4750          924 
  960000    1.0618897   -3.6655756      1728000    152.58646         4800          926 
  970000   0.99892994   -3.8253401      1728000    154.47188         4850          931 
  980000    0.9178502   -3.6105916      1728000    156.31204         4900          936 
  990000    1.0306015   -3.7975124      1728000    158.16848         4950          936 
 1000000    1.0386856   -3.6748031      1728000    160.04001         5000          942 
 1010000    1.0203398   -3.8420447      1728000     161.9184         5050          943 
 1020000   0.94063883   -3.7701073      1728000     163.8124         5100          945 
 1030000   0.97596145   -3.6398614      1728000    165.62428         5150          946 
 1040000   0.98661465   -3.6405352      1728000    167.50025         5200          949 
 1050000   0.98118766   -3.6652374      1728000    169.35006         5250          953 
 1060000   0.96585638   -3.7369045      1728000     171.2412         5300          954 
 1070000     1.000532   -3.5590805      1728000    173.08529         5350          957 
 1080000   0.99057264   -3.7263332      1728000    174.93747         5400          961 
 1090000   0.95808616   -3.8500633      1728000    176.75521         5450          964 
 1100000    1.0271159   -3.8099429      1728000    178.58815         5500          966 
 1110000   0.96242285   -3.8933853      1728000    180.44323         5550          969 
 1120000   0.97651411   -3.7914422      1728000    182.31978         5600          970 
 1130000    0.9712073    -3.799768      1728000    184.14662         5650          973 
 1140000    1.0312893   -3.7517457      1728000    185.99623         5700          974 
 1150000   0.94161657    -3.898791      1728000    187.93022         5750          979 
 1160000    1.0547141   -3.9250077      1728000    189.83293         5800          984 
 1170000    1.0368399   -3.8279816      1728000    191.71661         5850          985 
 1180000    1.0124022   -3.9530047      1728000    193.58675         5900          986 
 1190000    1.0045606   -3.8487097      1728000     195.4878         5950          989 
 1200000    1.0568685   -4.0181285      1728000    197.40534         6000          990 
 1210000    1.0575009   -4.0054781      1728000    199.31097         6050          993 
 1220000   0.97536271   -3.8748748      1728000    201.19411         6100          995 
 1230000   0.99608114   -3.8575268      1728000    203.06345         6150          999 
 1240000    1.0033907   -3.8804116      1728000    204.97631         6200         1001 
 1250000   0.94639289   -3.7760258      1728000    206.87821         6250         1002 
 1260000     1.013157   -3.8892949      1728000    208.77623         6300         1005 
 1270000    0.9800383    -4.003919      1728000    210.67922         6350         1007 
 1280000   0.98749393    -3.851088      1728000    212.57024         6400         1008 
 1290000    1.0337111   -3.8145749      1728000    214.48528         6450         1008 
 1300000    1.0372201   -3.9475913      1728000     216.4163         6500         1009 
 1310000    1.0375724   -3.9193769      1728000    218.33555         6550         1011 
 1320000    1.0953262   -3.8934366      1728000    220.21457         6600         1012 
 1330000    0.9983563   -3.8671829      1728000     222.1259         6650         1015 
 1340000   0.98279896   -3.9214895      1728000    224.03624         6700         1017 
 1350000   0.94257757   -3.9324651      1728000    225.98072         6750         1019 
 1360000    0.9921575   -3.8941366      1728000    227.91069         6800         1019 
 1370000    1.0188711   -3.8949096      1728000     229.8484         6850         1022 
 1380000   0.97519471   -3.8952983      1728000    231.74376         6900         1022 
 1390000    1.0824442   -3.9754691      1728000    233.63016         6950         1024 
 1400000     1.049034   -3.8411474      1728000    235.52629         7000         1024 
 1410000    1.0943488   -3.9976493      1728000    237.49638         7050         1026 
 1420000   0.97754876   -3.9703407      1728000    239.45632         7100         1031 
 1430000    1.0084972   -3.9252204      1728000    241.35548         7150         1032 
 1440000    1.0662124   -3.9443148      1728000    243.23046         7200         1033 
 1450000    1.0423145   -3.9250119      1728000    245.10164         7250         1039 
 1460000    1.0081364   -3.9443735      1728000    247.02307         7300         1040 
 1470000   0.98465383   -3.8832421      1728000    248.94787         7350         1042 
 1480000   0.99728222   -3.9245935      1728000    250.88501         7400         1043 
 1490000   0.93087757   -3.9709879      1728000    252.78266         7450         1045 
 1500000   0.96688812   -3.9822863      1728000    254.73468         7500         1047 
 1510000    1.0145782   -3.9399851      1728000    256.64614         7550         1048 
 1520000     1.040123   -4.0051677      1728000    258.59497         7600         1051 
 1530000    1.0363829   -3.9342498      1728000    260.47432         7650         1051 
 1540000   0.96225088    -4.070127      1728000    262.36837         7700         1053 
 1550000   0.96214298   -3.9190356      1728000    264.30061         7750         1054 
 1560000    1.0168322   -3.8582702      1728000    266.17438         7800         1054 
 1570000   0.99298769   -3.8930854      1728000    268.08918         7850         1055 
 1580000   0.98739883   -4.0305644      1728000    269.99637         7900         1057 
 1590000   0.96703752    -3.997835      1728000    271.92935         7950         1060 
 1600000    1.0379087   -3.9312576      1728000    273.81209         8000         1062 
 1610000    1.0427094   -3.9056267      1728000    275.71593         8050         1063 
 1620000   0.98473471   -4.0256158      1728000    277.61514         8100         1067 
 1630000    0.9410564   -4.0663437      1728000    279.53109         8150         1068 
 1640000    1.0070853   -3.9711649      1728000    281.48932         8200         1070 
 1650000    0.9500677    -4.034074      1728000    283.45944         8250         1071 
 1660000    0.9811453   -3.9518778      1728000    285.40898         8300         1073 
 1670000   0.97525621   -3.9709248      1728000    287.32038         8350         1075 
 1680000   0.95945344   -4.0318756      1728000    289.24368         8400         1077 
 1690000   0.98461712   -3.7978759      1728000    291.12544         8450         1079 
 1700000    1.0426647   -4.0349201      1728000    293.09315         8500         1080 
 1710000    1.0107403   -3.9192008      1728000    295.01941         8550         1080 
 1720000    1.0383075     -3.89614      1728000    296.93238         8600         1084 
 1730000    1.0605406   -4.0420811      1728000    298.84958         8650         1084 
 1740000    1.0174206   -4.1797519      1728000    300.80405         8700         1087 
 1750000    1.0606942   -4.0295923      1728000    302.77292         8750         1087 
 1760000    0.9997826   -3.9368276      1728000    304.74937         8800         1088 
 1770000   0.98643484   -4.0942398      1728000    306.70516         8850         1089 
 1780000   0.98819321   -4.1290102      1728000    308.62945         8900         1091 
 1790000     1.034265   -3.9782536      1728000    310.55922         8950         1091 
 1800000    1.0442431   -4.0932217      1728000     312.4703         9000         1092 
 1810000    1.0119287   -4.0359446      1728000    314.42145         9050         1092 
 1820000   0.98552323   -4.1218088      1728000    316.40045         9100         1092 
 1830000   0.95318879   -3.9832075      1728000    318.39544         9150         1093 
 1840000   0.96592379   -3.9896045      1728000    320.32995         9200         1095 
 1850000   0.97976515   -4.0335145      1728000    322.29359         9250         1095 
 1860000    1.0205232   -3.8971673      1728000    324.27958         9300         1096 
 1870000   0.96305796   -3.9856462      1728000    326.26945         9350         1101 
 1880000   0.96938493   -4.0348512      1728000    328.18184         9400         1104 
 1890000    1.0232305   -4.0426411      1728000    330.10302         9450         1105 
 1900000   0.98744489   -4.0397526      1728000    332.04263         9500         1105 
 1910000    0.9858532   -4.0680639      1728000    333.93613         9550         1106 
 1920000    1.0691577   -3.9870651      1728000    335.90668         9600         1107 
 1930000   0.99660493   -4.0939545      1728000    337.84092         9650         1107 
 1940000   0.97961652   -4.0381947      1728000     339.7908         9700         1109 
 1950000   0.97269747   -4.0244619      1728000    341.78167         9750         1110 
 1960000    1.0093483   -4.0402706      1728000    343.69639         9800         1112 
 1970000   0.97561039   -4.0185641      1728000    345.68267         9850         1113 
 1980000   0.97787522   -4.0071359      1728000    347.58343         9900         1114 
 1990000    1.0631098   -4.0321155      1728000    349.51545         9950         1115 
 2000000    1.0211149   -4.0208321      1728000    351.50035        10000         1116 
 2010000   0.97160803   -4.1095408      1728000    353.41939        10050         1116 
 2020000    1.1089604   -3.9783639      1728000    355.34342        10100         1118 
 2030000    1.0558562   -4.0367119      1728000     357.4016        10150         1121 
 2040000    1.0014079   -4.0847552      1728000    359.37257        10200         1122 
 2050000     1.043184   -3.9570982      1728000    361.31736        10250         1124 
 2060000    1.0114564   -4.0997835      1728000    363.29333        10300         1125 
 2070000    1.0305797   -4.0787372      1728000    365.20419        10350         1125 
 2080000    1.0427876   -4.1341871      1728000    367.16768        10400         1127 
 2090000   0.95593056   -4.0787315      1728000    369.15742        10450         1128 
 2100000    1.0450078   -4.1116299      1728000    371.18121        10500         1128 
 2110000     0.930253   -4.0569587      1728000    373.15779        10550         1131 
 2120000   0.99741461   -4.0296244      1728000    375.17573        10600         1131 
 2130000   0.97117741   -4.1807136      1728000    377.12316        10650         1132 
 2140000   0.94182174   -4.0225037      1728000    379.04149        10700         1132 
 2150000    0.9758814   -4.0476808      1728000    381.00043        10750         1133 
 2160000    0.9769974   -3.9791335      1728000    382.91253        10800         1133 
 2170000   0.97596836   -4.0225891      1728000    384.86349        10850         1134 
 2180000   0.99617639   -4.0854291      1728000    386.78476        10900         1136 
 2190000    1.0194153   -4.1113202      1728000    388.68942        10950         1138 
 2200000   0.96769955   -4.0637858      1728000    390.57152        11000         1139 
 2210000   0.96238886   -4.0629991      1728000    392.43233        11050         1140 
 2220000    1.0391631   -4.0597644      1728000    394.36985        11100         1140 
 2230000   0.98770978   -3.9747548      1728000    396.32045        11150         1142 
 2240000    1.0110869   -4.1167584      1728000    398.23978        11200         1144 
 2250000    1.0301572   -4.0023964      1728000    400.22051        11250         1145 
 2260000    1.0418603   -4.0240665      1728000    402.15717        11300         1145 
 2270000   0.97984801   -4.1509762      1728000    404.07473        11350         1146 
 2280000    1.0068622   -4.0049263      1728000     405.9414        11400         1150 
 2290000    0.9533048   -4.1545163      1728000    407.81449        11450         1151 
 2300000   0.95273559   -3.9973523      1728000    409.72482        11500         1152 
 2310000   0.94620815   -3.9871922      1728000    411.62799        11550         1153 
 2320000     1.033641   -4.1187268      1728000    413.52504        11600         1153 
 2330000    1.0011543   -3.9402665      1728000    415.43889        11650         1155 
 2340000   0.99763392   -4.0536571      1728000    417.36849        11700         1156 
 2350000   0.98079221   -3.9588817      1728000    419.27783        11750         1157 
 2360000    1.0470186   -3.9134683      1728000     421.1971        11800         1158 
 2370000    1.0198277   -4.0827017      1728000    423.11357        11850         1158 
 2380000     0.971014    -4.026428      1728000    425.06576        11900         1159 
 2390000    1.0485259   -3.9782653      1728000    427.00923        11950         1159 
 2400000   0.93978129   -4.1301295      1728000    428.92938        12000         1160 
 2410000    0.9885246   -4.1119892      1728000    430.86055        12050         1162 
 2420000    1.0595592   -4.0017421      1728000    432.82876        12100         1164 
 2430000   0.96559543   -4.0353063      1728000    434.74741        12150         1166 
 2440000   0.98147519   -4.2163035      1728000     436.7215        12200         1171 
 2450000   0.93943236    -3.954812      1728000    438.63291        12250         1172 
 2460000     0.987707    -4.182167      1728000    440.55457        12300         1174 
 2470000    1.0161822   -4.0709404      1728000     442.5145        12350         1175 
 2480000    1.0269743   -4.0711829      1728000    444.43408        12400         1176 
 2490000   0.98035432   -3.9675463      1728000    446.35117        12450         1177 
 2500000    1.0134655   -4.0066062      1728000    448.30128        12500         1179 
 2510000   0.96817703   -3.9330262      1728000    450.21449        12550         1181 
 2520000    1.0434855   -4.2523032      1728000    452.15561        12600         1181 
 2530000   0.94411512   -3.9732321      1728000    454.04761        12650         1183 
 2540000    1.0336784   -4.0935793      1728000    455.95986        12700         1186 
 2550000   0.99263894   -4.0392485      1728000    457.93157        12750         1187 
 2560000   0.99255221   -4.0281476      1728000    459.86702        12800         1189 
 2570000    1.0183082   -3.9784688      1728000    461.79156        12850         1189 
 2580000   0.96712367    -4.079322      1728000    463.73527        12900         1190 
 2590000     1.052739   -4.0086081      1728000    465.65807        12950         1195 
 2600000     1.039472    -4.108373      1728000     467.5796        13000         1196 
 2610000     0.997927   -4.1146965      1728000    469.54366        13050         1197 
 2620000    0.9467559   -4.1157636      1728000    471.49806        13100         1197 
 2630000   0.98900222   -4.0880834      1728000    473.43389        13150         1197 
 2640000   0.98672972   -4.1235132      1728000    475.36481        13200         1197 
 2650000   0.95893363   -4.1013323      1728000    477.26139        13250         1202 
 2660000    1.0406452   -3.8996511      1728000    479.21666        13300         1204 
 2670000   0.97455419    -4.154133      1728000    481.12667        13350         1206 
 2680000   0.99365962   -4.0780822      1728000     483.0736        13400         1207 
 2690000    1.0317706   -3.9043376      1728000    485.01144        13450         1208 
 2700000   0.98995372   -4.0667991      1728000    486.97828        13500         1209 
 2710000    0.9593907   -3.9339122      1728000    488.93592        13550         1210 
 2720000    1.0147418   -4.1084566      1728000    490.85201        13600         1212 
 2730000    1.0524866   -4.0252534      1728000    492.76666        13650         1213 
 2740000    1.0131303   -4.0719986      1728000    494.73736        13700         1217 
 2750000   0.99383925   -4.1148978      1728000    496.72543        13750         1217 
 2760000    1.0141951   -3.9341891      1728000    498.68354        13800         1217 
 2770000   0.97047547   -4.1027413      1728000    500.68035        13850         1218 
 2780000    0.9819618   -4.0901976      1728000    502.63446        13900         1221 
 2790000    1.0479119   -4.1072638      1728000    504.58669        13950         1223 
 2800000   0.95381467   -4.1270816      1728000    506.59961        14000         1228 
 2810000    1.0364337   -4.0238071      1728000    508.56195        14050         1228 
 2820000   0.94231244   -4.0043344      1728000    510.52862        14100         1230 
 2830000    1.0360418   -4.0483924      1728000     512.4546        14150         1232 
 2840000    1.0021484   -3.9833167      1728000    514.38035        14200         1235 
 2850000    1.0151279   -4.0695081      1728000    516.33679        14250         1238 
 2860000    1.0255463   -4.1350459      1728000    518.27757        14300         1238 
 2870000    1.0549229   -4.0835723      1728000     520.2414        14350         1240 
 2880000   0.99995629   -4.1223154      1728000    522.21061        14400         1241 
 2890000   0.97425488   -4.1454713      1728000    524.17987        14450         1242 
 2900000    1.0091653   -4.0219845      1728000    526.15159        14500         1244 
 2910000    1.0181161   -4.2080042      1728000    528.08847        14550         1246 
 2920000    1.0036861   -4.1211324      1728000    530.04136        14600         1246 
 2930000   0.98324659   -4.1073314      1728000    531.99765        14650         1247 
 2940000   0.97219311   -4.0828248      1728000    533.97265        14700         1247 
 2950000     1.011253   -3.8822848      1728000    535.91284        14750         1247 
 2960000   0.99446261   -4.0976399      1728000    537.86458        14800         1248 
 2970000    0.9587515   -4.1187602      1728000    539.79133        14850         1250 
 2980000    1.0259475    -4.021394      1728000    541.72979        14900         1252 
 2990000   0.97590226   -4.0734069      1728000    543.70085        14950         1256 
 3000000    1.0519043   -4.0964776      1728000    545.67617        15000         1256 
 3010000   0.98056105   -4.3028406      1728000    547.67333        15050         1256 
 3020000    0.9363855   -4.0594616      1728000    549.61865        15100         1257 
 3030000   0.96730137   -4.1466243      1728000    551.60111        15150         1257 
 3040000    1.0214154   -4.1877115      1728000    553.58318        15200         1257 
 3050000   0.96886754    -4.161885      1728000    555.52687        15250         1257 
 3060000    1.0322177   -4.1048182      1728000     557.4762        15300         1258 
 3070000   0.97318422   -4.1260923      1728000    559.47229        15350         1258 
 3080000    1.0608709   -4.2098546      1728000    561.46133        15400         1258 
 3090000   0.95431877    -4.118397      1728000    563.52874        15450         1259 
 3100000    1.0405242    -4.186857      1728000    565.47749        15500         1261 
 3110000   0.99917324    -4.119626      1728000    567.39031        15550         1261 
 3120000   0.96078775   -4.1830991      1728000    569.36444        15600         1262 
 3130000    1.0047655   -4.0728949      1728000    571.33072        15650         1262 
 3140000   0.99163197    -4.083386      1728000    573.26619        15700         1262 
 3150000   0.99281329   -4.2541718      1728000    575.23494        15750         1262 
 3160000    1.1017446   -4.0066948      1728000    577.20296        15800         1266 
 3170000    1.0100983   -4.1115165      1728000    579.17224        15850         1267 
 3180000   0.96019826   -4.1433591      1728000    581.14776        15900         1269 
 3190000    0.9742937   -4.1277278      1728000    583.12377        15950         1270 
 3200000    1.0066849   -4.1048351      1728000    585.10889        16000         1270 
 3210000    1.0483938   -4.1123479      1728000    587.05055        16050         1270 
 3220000   0.96511744   -4.1705724      1728000    588.98845        16100         1270 
 3230000   0.97740386    -4.178898      1728000    590.93064        16150         1272 
 3240000   0.99773971   -4.1031267      1728000    592.88953        16200         1272 
 3250000   0.99655853   -4.0161054      1728000     594.8277        16250         1272 
 3260000     1.034817   -4.1754299      1728000    596.81976        16300         1274 
 3270000   0.95143369   -4.0362057      1728000    598.81733        16350         1277 
 3280000    1.0270479   -4.1183178      1728000    600.77775        16400         1279 
 3290000   0.97504649   -4.1588244      1728000    602.66691        16450         1279 
 3300000    0.9771551   -4.1518041      1728000    604.62244        16500         1280 
 3310000   0.93484056   -4.0873379      1728000     606.6507        16550         1280 
 3320000    1.0809414   -4.1374077      1728000    608.63164        16600         1280 
 3330000     0.987022    -4.250929      1728000    610.54597        16650         1280 
 3340000    1.0073484   -4.1448158      1728000    612.42974        16700         1280 
 3350000   0.98208657   -4.1269807      1728000    614.32069        16750         1281 
 3360000    1.0657439   -4.1846134      1728000    616.24378        16800         1284 
 3370000   0.97376987   -4.1094367      1728000    618.17373        16850         1284 
 3380000    1.0889038   -4.1186592      1728000     620.0717        16900         1284 
 3390000    1.0078316   -4.1281205      1728000    621.98075        16950         1285 
 3400000    1.0411321   -4.0833032      1728000    623.88296        17000         1285 
 3410000   0.97895867   -4.0831621      1728000    625.79667        17050         1286 
 3420000     1.019844   -4.2264334      1728000    627.68926        17100         1286 
 3430000     1.015143   -4.1756066      1728000     629.5914        17150         1286 
 3440000    0.9427361   -4.1008374      1728000    631.56279        17200         1286 
 3450000    1.0199839   -4.2391987      1728000    633.49911        17250         1286 
 3460000   0.93230585   -4.2178639      1728000    635.50275        17300         1288 
 3470000     1.001327   -4.1410355      1728000    637.47041        17350         1288 
 3480000     1.010633   -4.2835069      1728000    639.42902        17400         1290 
 3490000   0.97901072   -4.1500324      1728000    641.41715        17450         1292 
 3500000    1.0200212   -4.1799913      1728000    643.38074        17500         1292 
 3510000   0.97005172   -4.1729652      1728000    645.39009        17550         1293 
 3520000    0.9984737   -4.1336185      1728000    647.32846        17600         1293 
 3530000   0.95528699   -4.1511754      1728000    649.32571        17650         1293 
 3540000    1.0481727   -4.2102043      1728000    651.31197        17700         1294 
 3550000    1.0041608   -4.1890647      1728000    653.30087        17750         1294 
 3560000    1.0200123   -4.0919451      1728000    655.27668        17800         1294 
 3570000   0.97630165   -4.2389724      1728000    657.27583        17850         1296 
 3580000     1.003957   -4.1197514      1728000    659.23373        17900         1296 
 3590000   0.95945725   -4.0465504      1728000    661.18373        17950         1297 
 3600000   0.94874809   -4.1414541      1728000    663.16176        18000         1298 
 3610000   0.95881367   -4.2212244      1728000    665.27945        18050         1298 
 3620000   0.96616788   -4.1854968      1728000    667.36128        18100         1298 
 3630000    1.0144208   -4.0830464      1728000    669.42559        18150         1299 
 3640000    1.0066571   -3.9928832      1728000    671.41555        18200         1303 
 3650000    1.0315879    -4.181817      1728000    673.35692        18250         1308 
 3660000   0.99309546   -4.0207001      1728000    675.36149        18300         1310 
 3670000    0.9679207   -4.1747122      1728000    677.34076        18350         1311 
 3680000   0.98561683   -4.2123116      1728000     679.3321        18400         1312 
 3690000   0.97409761   -4.0459311      1728000     681.3024        18450         1314 
 3700000   0.96651686   -3.9057762      1728000    683.29311        18500         1315 
 3710000    1.0147859   -4.0902216      1728000    685.32171        18550         1317 
 3720000    1.0021066   -4.1042757      1728000    687.29268        18600         1317 
 3730000    1.0474961   -4.1958958      1728000    689.29192        18650         1317 
 3740000    0.9589149   -4.1504984      1728000    691.26549        18700         1317 
 3750000    1.0700968   -4.1301878      1728000    693.19803        18750         1317 
 3760000    1.0633388   -3.9526217      1728000    695.15977        18800         1318 
 3770000   0.96559668   -3.9729888      1728000    697.10582        18850         1318 
 3780000   0.97828442   -3.9794824      1728000    699.03672        18900         1318 
 3790000   0.97689176   -4.0150377      1728000    700.97584        18950         1319 
 3800000   0.98145512   -4.0144133      1728000    702.91898        19000         1320 
 3810000    1.0112837   -4.1142296      1728000    704.87292        19050         1323 
 3820000    1.0061451   -4.1359884      1728000    706.79794        19100         1324 
 3830000   0.99289737   -3.9885677      1728000    708.75685        19150         1325 
 3840000   0.96936846   -4.1641015      1728000    710.67712        19200         1326 
 3850000   0.99255071   -4.1185921      1728000    712.59354        19250         1327 
 3860000   0.98498968   -4.2485108      1728000    714.53137        19300         1328 
 3870000    1.0315061   -4.0972128      1728000    716.49067        19350         1329 
 3880000    1.0668261   -4.0659104      1728000     718.4341        19400         1329 
 3890000    1.0184931   -3.9914798      1728000    720.42005        19450         1332 
 3900000    1.0031688   -4.1750676      1728000    722.42694        19500         1334 
 3910000    1.0539336   -4.2101481      1728000    724.40082        19550         1335 
 3920000   0.95489783   -4.1303425      1728000    726.39808        19600         1336 
 3930000    1.0257231   -3.9467241      1728000     728.2985        19650         1338 
 3940000    1.0358639   -4.1522624      1728000    730.22956        19700         1339 
 3950000    0.9457783   -4.1459678      1728000    732.21386        19750         1340 
 3960000   0.99618719   -4.1323635      1728000    734.14197        19800         1342 
 3970000   0.99072201    -4.198636      1728000    736.05275        19850         1343 
 3980000    1.0384529   -4.0773075      1728000     737.9799        19900         1344 
 3990000   0.93359462   -4.1248047      1728000    739.87507        19950         1344 
 4000000   0.99003366   -4.0649968      1728000    741.83706        20000         1347 
 4010000   0.98453164   -4.1764164      1728000    743.74681        20050         1347 
 4020000    1.0043448   -4.2358851      1728000    745.70849        20100         1348 
 4030000   0.95702752   -4.1531769      1728000    747.66969        20150         1350 
 4040000    1.0531109   -4.0800618      1728000    749.59356        20200         1352 
 4050000   0.99704515   -4.1068465      1728000    751.56483        20250         1352 
 4060000    1.0067363   -4.1183352      1728000    753.48705        20300         1352 
 4070000    1.0206321   -4.0999542      1728000     755.4158        20350         1354 
 4080000   0.95076089   -4.0734036      1728000    757.36588        20400         1356 
 4090000    1.0320484   -4.1782822      1728000    759.31471        20450         1358 
 4100000   0.99476191   -4.0776952      1728000    761.25782        20500         1359 
 4110000    1.0321263   -4.0974358      1728000    763.17082        20550         1360 
 4120000    1.0405034   -4.1109132      1728000    765.15586        20600         1360 
 4130000   0.96743415   -4.0622743      1728000    767.05905        20650         1362 
 4140000   0.98255722   -4.0562136      1728000    769.04299        20700         1365 
 4150000    1.0430521    -4.044986      1728000     770.9408        20750         1368 
 4160000    0.9825201   -4.1098839      1728000    772.90747        20800         1368 
 4170000   0.99506028   -4.2890699      1728000     774.8463        20850         1369 
 4180000   0.99563261   -4.0860264      1728000    776.79314        20900         1369 
 4190000     1.024027   -4.0023126      1728000      778.688        20950         1370 
 4200000    1.1096238   -4.0108504      1728000    780.63695        21000         1371 
 4210000    1.0370064   -4.0071054      1728000    782.57212        21050         1375 
 4220000   0.98410585   -4.0808911      1728000    784.49086        21100         1376 
 4230000   0.99229908   -4.0679681      1728000    786.46213        21150         1376 
 4240000    1.0693024   -3.9972498      1728000    788.39592        21200         1379 
 4250000    1.0714164   -4.0520853      1728000    790.37186        21250         1380 
 4260000   0.95797485   -4.1185895      1728000     792.2934        21300         1382 
 4270000   0.99760211     -4.18746      1728000    794.24188        21350         1384 
 4280000    1.0470452   -4.1093021      1728000    796.20091        21400         1387 
 4290000   0.99468715   -4.0582148      1728000    798.13064        21450         1388 
 4300000   0.88657319   -4.2311837      1728000    800.07137        21500         1389 
 4310000   0.93691524   -4.1580037      1728000    802.02689        21550         1389 
 4320000   0.96957599   -4.2427959      1728000    803.94018        21600         1391 
 4330000   0.94029374   -4.1283939      1728000     805.8478        21650         1391 
 4340000   0.95960942    -4.141536      1728000    807.80582        21700         1393 
 4350000    1.0032946   -4.1167495      1728000    809.75374        21750         1393 
 4360000    1.0311698   -4.0997046      1728000    811.65789        21800         1395 
 4370000   0.98848928     -4.02346      1728000    813.59293        21850         1397 
 4380000    1.0354723   -4.0889723      1728000    815.48292        21900         1398 
 4390000   0.96317173   -4.2018163      1728000    817.43288        21950         1401 
 4400000    1.0183621   -4.1859345      1728000    819.38772        22000         1404 
 4410000   0.97746866   -4.0379881      1728000    821.35995        22050         1405 
 4420000   0.98507488   -4.0798937      1728000    823.32242        22100         1405 
 4430000   0.98849183   -4.1506183      1728000    825.24888        22150         1405 
 4440000     1.013255   -4.1621514      1728000    827.21209        22200         1407 
 4450000    1.0326815   -4.1015186      1728000    829.13592        22250         1407 
 4460000    0.9515071    -4.033932      1728000    831.08666        22300         1408 
 4470000   0.94170247   -4.0448955      1728000    832.99292        22350         1410 
 4480000    1.0148251   -4.1400246      1728000    834.97497        22400         1411 
 4490000   0.98244679   -4.0547736      1728000    836.91971        22450         1413 
 4500000   0.96588343    -4.154393      1728000      838.819        22500         1413 
 4510000   0.97951094   -4.1129347      1728000    840.73398        22550         1416 
 4520000    0.9945338   -4.0186052      1728000      842.621        22600         1417 
 4530000   0.97401521   -4.1145576      1728000    844.59055        22650         1417 
 4540000   0.99637028   -3.9864238      1728000    846.54199        22700         1420 
 4550000   0.98125591   -4.2187511      1728000    848.44272        22750         1420 
 4560000     1.012347   -4.1284828      1728000    850.38396        22800         1421 
 4570000   0.97425525   -4.1057069      1728000    852.31069        22850         1422 
 4580000     1.037934   -4.1253816      1728000    854.26595        22900         1422 
 4590000    1.0464666   -4.1963464      1728000    856.17903        22950         1423 
 4600000    1.0204504   -4.1190411      1728000    858.14664        23000         1424 
 4610000   0.94211292   -4.1559678      1728000    860.11712        23050         1425 
 4620000    1.0185359   -4.0954491      1728000    862.04193        23100         1427 
 4630000   0.97333099   -4.0510444      1728000    863.98395        23150         1427 
 4640000   0.93234064   -4.2220085      1728000    865.92305        23200         1428 
 4650000    0.9666144   -4.1560772      1728000    867.81797        23250         1429 
 4660000   0.99838506    -4.171949      1728000    869.79476        23300         1429 
 4670000    1.0199145   -4.1800304      1728000    871.75701        23350         1432 
 4680000    1.0489627   -4.0851464      1728000    873.68897        23400         1432 
 4690000   0.95413925   -4.1479235      1728000    875.60623        23450         1433 
 4700000    1.0037119   -4.1766424      1728000    877.60431        23500         1435 
 4710000   0.97651507   -4.0813842      1728000    879.55602        23550         1435 
 4720000   0.98498822   -3.9934223      1728000    881.49403        23600         1435 
 4730000    1.0275986   -4.0586089      1728000    883.40914        23650         1435 
 4740000   0.93533329   -4.1748083      1728000    885.33795        23700         1435 
 4750000   0.97455128    -4.225517      1728000    887.32503        23750         1435 
 4760000   0.98709697   -4.1004144      1728000    889.27767        23800         1435 
 4770000   0.97431779   -3.9804936      1728000    891.19133        23850         1438 
 4780000    1.0174044   -4.1517682      1728000    893.13091        23900         1439 
 4790000   0.99276228   -4.2149769      1728000    895.04115        23950         1440 
 4800000    1.0154511   -4.1069616      1728000    896.96622        24000         1442 
 4810000   0.97557174   -4.1536528      1728000    898.88595        24050         1442 
 4820000   0.96642751   -4.1216643      1728000    900.79131        24100         1443 
 4830000    1.0022978   -4.2319345      1728000     902.7705        24150         1444 
 4840000   0.97889319   -4.1281633      1728000     904.7238        24200         1444 
 4850000    1.0393966   -3.9409935      1728000    906.66609        24250         1446 
 4860000   0.92978573   -4.0141565      1728000    908.66891        24300         1447 
 4870000   0.94859757   -4.0623623      1728000    910.71977        24350         1448 
 4880000    1.0044418   -4.0440519      1728000    912.67376        24400         1449 
 4890000   0.99606619   -4.1489269      1728000    914.64868        24450         1449 
 4900000    1.0456645   -4.2350083      1728000    916.56456        24500         1449 
 4910000   0.99180973   -3.9837114      1728000    918.50108        24550         1449 
 4920000   0.99190265   -4.0792819      1728000    920.42209        24600         1451 
 4930000    0.9220884   -4.1330317      1728000    922.36805        24650         1452 
 4940000    1.0014708   -4.0919373      1728000    924.25506        24700         1453 
 4950000    1.0599654   -4.1986821      1728000    926.14305        24750         1453 
 4960000   0.99167898   -4.0633694      1728000    928.08096        24800         1456 
 4970000    1.0000829    -4.148919      1728000    930.01017        24850         1457 
 4980000   0.99748193   -4.0452066      1728000    931.95402        24900         1458 
 4990000   0.95323577   -4.1025282      1728000    933.89113        24950         1459 
 5000000   0.99995146   -4.1053396      1728000    935.83779        25000         1459 
 5010000   0.96280541   -4.0655421      1728000    937.77899        25050         1460 
 5020000    1.0413372   -4.0556766      1728000    939.69294        25100         1462 
 5030000   0.99784052   -4.0802175      1728000    941.60644        25150         1463 
 5040000    1.0424917   -4.1453463      1728000    943.56316        25200         1467 
 5050000    1.0106981   -4.2524361      1728000    945.51377        25250         1467 
 5060000    1.0002071   -4.1224704      1728000    947.42209        25300         1467 
 5070000   0.99745973   -3.9951396      1728000    949.37608        25350         1467 
 5080000    1.0346633   -3.9483143      1728000    951.28829        25400         1468 
 5090000    1.0392953   -4.1589639      1728000    953.24526        25450         1469 
 5100000   0.97793064    -4.208323      1728000    955.20469        25500         1469 
 5110000   0.96958234    -4.153899      1728000    957.18683        25550         1470 
 5120000   0.96876839   -4.0064131      1728000    959.14732        25600         1471 
 5130000    1.0373938   -4.0838246      1728000    961.10904        25650         1472 
 5140000   0.95098109   -4.1797063      1728000    963.04618        25700         1475 
 5150000    1.0266125   -4.0935138      1728000    964.97082        25750         1477 
 5160000    1.0574399   -4.0262441      1728000    966.92297        25800         1478 
 5170000    1.0584065   -3.9926243      1728000    968.86982        25850         1479 
 5180000    1.0277358   -4.1092876      1728000    970.82019        25900         1479 
 5190000   0.94609173   -4.0346323      1728000    972.77058        25950         1482 
 5200000    1.0329792    -4.170673      1728000     974.6943        26000         1483 
 5210000   0.98674486   -4.1669889      1728000    976.63989        26050         1484 
 5220000    1.0210502    -3.963288      1728000    978.58619        26100         1485 
 5230000   0.93957765   -3.9863854      1728000    980.53654        26150         1485 
 5240000    1.0295908   -4.1070306      1728000    982.51015        26200         1485 
 5250000   0.99814017   -4.1296678      1728000    984.45724        26250         1486 
 5260000   0.98879543   -4.0526319      1728000    986.45704        26300         1488 
 5270000    0.9510799   -4.0803978      1728000    988.43925        26350         1490 
 5280000    1.0688995   -4.1261891      1728000    990.40094        26400         1490 
 5290000    1.0237621   -3.9259553      1728000    992.33714        26450         1493 
 5300000    1.0357764   -4.1385857      1728000    994.27909        26500         1495 
 5310000   0.96982189   -4.1438204      1728000    996.23007        26550         1498 
 5320000    1.0102448   -3.9772851      1728000    998.18133        26600         1500 
 5330000    1.0326706   -4.0908774      1728000    1000.1239        26650         1500 
 5340000   0.99510296   -4.1834142      1728000    1002.0511        26700         1502 
 5350000    1.0168374   -4.0313876      1728000    1004.0018        26750         1502 
 5360000    1.0053951   -4.0760026      1728000    1005.9702        26800         1503 
 5370000    1.0377416   -4.1724175      1728000    1007.9344        26850         1504 
 5380000    1.0195585   -4.0347976      1728000    1009.9159        26900         1504 
 5390000   0.91459632   -4.1179615      1728000    1011.8991        26950         1505 
 5400000    1.0073034   -4.0822896      1728000    1013.8432        27000         1506 
 5410000   0.91908603    -4.199737      1728000    1015.7941        27050         1506 
 5420000    1.0285807   -4.0968723      1728000    1017.7272        27100         1506 
 5430000    1.0028766   -4.0033663      1728000      1019.66        27150         1509 
 5440000   0.99180758   -4.2013466      1728000    1021.6211        27200         1509 
 5450000   0.96687216   -4.0854735      1728000    1023.5352        27250         1510 
 5460000    1.0491784   -4.1139181      1728000     1025.485        27300         1512 
 5470000   0.99861684   -3.9097358      1728000    1027.4608        27350         1513 
 5480000   0.98553564   -4.0540633      1728000    1029.3825        27400         1516 
 5490000    1.0387192   -4.0376762      1728000    1031.3411        27450         1516 
 5500000   0.96319958   -4.1741916      1728000     1033.292        27500         1517 
 5510000     1.040074   -4.2311721      1728000    1035.2513        27550         1518 
 5520000    1.0279181   -4.1302249      1728000    1037.1849        27600         1519 
 5530000   0.93167968    -4.181008      1728000    1039.1082        27650         1521 
 5540000    1.0322272   -4.0507578      1728000    1041.0946        27700         1522 
 5550000   0.94641026   -3.9669517      1728000    1043.0371        27750         1523 
 5560000    1.0211757   -4.0704692      1728000    1044.9684        27800         1525 
 5570000    1.0516384    -4.175086      1728000    1046.8922        27850         1529 
 5580000   0.99891896   -4.0447245      1728000      1048.86        27900         1529 
 5590000    1.0543709   -4.1226394      1728000    1050.8263        27950         1530 
 5600000    1.0098745   -4.0416752      1728000    1052.7702        28000         1531 
 5610000   0.98148499    -4.148378      1728000    1054.6919        28050         1532 
 5620000   0.93933313   -4.0942648      1728000    1056.6441        28100         1533 
 5630000   0.95700102   -4.1430495      1728000    1058.6068        28150         1534 
 5640000    1.0431131   -4.1509961      1728000    1060.5212        28200         1535 
 5650000   0.99133608   -4.1290355      1728000    1062.4435        28250         1535 
 5660000    1.0299879   -4.0429333      1728000    1064.3971        28300         1538 
 5670000   0.97664822   -4.1411848      1728000     1066.345        28350         1539 
 5680000    1.0412733   -4.1241046      1728000    1068.3254        28400         1540 
 5690000    1.0193484   -4.2023785      1728000    1070.2992        28450         1542 
 5700000    1.0121937   -4.0045027      1728000    1072.2772        28500         1543 
 5710000   0.98558444   -4.0851049      1728000    1074.1934        28550         1544 
 5720000   0.97158551   -4.1179852      1728000    1076.1543        28600         1546 
 5730000   0.97241945   -4.1250888      1728000    1078.0641        28650         1547 
 5740000   0.98432308   -4.2021615      1728000    1080.0266        28700         1550 
 5750000   0.95229176   -4.0347176      1728000    1081.9963        28750         1557 
 5760000    1.0373055   -4.1343255      1728000    1083.8952        28800         1559 
 5770000   0.94029332   -4.0958262      1728000    1085.8772        28850         1560 
 5780000   0.95738486   -4.1412958      1728000    1087.8552        28900         1561 
 5790000    1.0196084   -4.1155723      1728000    1089.8291        28950         1562 
 5800000   0.99998605   -4.1175335      1728000    1091.8128        29000         1563 
 5810000    1.0523639   -4.1283657      1728000    1093.7752        29050         1566 
 5820000    1.0403541    -4.027422      1728000    1095.7312        29100         1566 
 5830000    0.9738221   -4.1398989      1728000    1097.6781        29150         1568 
 5840000   0.97910977   -4.1744559      1728000    1099.6412        29200         1569 
 5850000   0.97794359   -4.0802043      1728000    1101.6055        29250         1572 
 5860000    1.0652037   -4.0878352      1728000    1103.5842        29300         1572 
 5870000    1.0082792   -4.1142706      1728000    1105.5253        29350         1574 
 5880000    1.0219852   -4.1621286      1728000    1107.4655        29400         1574 
 5890000    0.9727413    -4.163907      1728000    1109.3904        29450         1575 
 5900000   0.97107831   -4.1503819      1728000    1111.3888        29500         1575 
 5910000    1.0200532   -4.1870994      1728000    1113.3243        29550         1576 
 5920000    1.0065562    -4.121915      1728000    1115.2162        29600         1576 
 5930000    1.0139328   -4.0803985      1728000    1117.1208        29650         1576 
 5940000    1.0440461   -4.1323756      1728000    1119.0053        29700         1578 
 5950000   0.98155801   -4.1361429      1728000    1120.9662        29750         1580 
 5960000   0.99667545   -3.9942991      1728000    1122.8982        29800         1582 
 5970000    1.0288971   -4.0512926      1728000    1124.7971        29850         1582 
 5980000    1.0062423   -4.0435562      1728000    1126.7256        29900         1585 
 5990000    1.0423443   -4.0297993      1728000    1128.6331        29950         1590 
 6000000    1.0613754   -4.0565646      1728000    1130.5916        30000         1593 
 6010000   0.97040229   -4.1116263      1728000    1132.5451        30050         1594 
 6020000   0.92781252   -4.0762828      1728000    1134.5235        30100         1596 
 6030000   0.99264284    -4.099362      1728000    1136.4703        30150         1598 
 6040000    1.0075831   -4.1957733      1728000    1138.4601        30200         1603 
 6050000   0.98683898   -4.0917553      1728000    1140.4284        30250         1603 
 6060000    1.0249845   -4.0541531      1728000     1142.377        30300         1603 
 6070000    1.0901392   -4.1141353      1728000    1144.3742        30350         1603 
 6080000    0.9677063   -4.2126442      1728000    1146.3031        30400         1605 
 6090000    1.0762317   -4.0920118      1728000    1148.2363        30450         1606 
 6100000   0.97257786   -4.0620626      1728000     1150.253        30500         1607 
 6110000   0.97585723   -4.1105696      1728000    1152.2648        30550         1607 
 6120000    1.0077717    -4.189155      1728000    1154.1913        30600         1607 
 6130000    1.0227696    -4.085126      1728000    1156.1042        30650         1608 
 6140000   0.95990621   -4.1134592      1728000     1158.018        30700         1613 
 6150000   0.98508678   -4.0565789      1728000    1159.9492        30750         1614 
 6160000     1.047105   -4.0168305      1728000    1161.8698        30800         1618 
 6170000   0.99278222   -4.1897693      1728000    1163.7955        30850         1618 
 6180000    1.0002986   -3.9508602      1728000    1165.6968        30900         1618 
 6190000   0.99495038   -4.0621052      1728000    1167.6244        30950         1620 
 6200000    1.0134098   -4.1288435      1728000    1169.5662        31000         1620 
 6210000   0.98011088   -4.1544882      1728000    1171.5303        31050         1621 
 6220000    1.0341398   -4.0941577      1728000    1173.4243        31100         1624 
 6230000   0.99363146   -4.1224674      1728000    1175.3733        31150         1625 
 6240000   0.99057323    -4.025042      1728000    1177.3332        31200         1626 
 6250000   0.98756868    -4.082289      1728000    1179.2811        31250         1628 
 6260000    1.0193187   -4.0806078      1728000    1181.2184        31300         1629 
 6270000   0.94002548   -4.0308045      1728000    1183.1299        31350         1630 
 6280000   0.96429266   -4.0161404      1728000     1185.027        31400         1630 
 6290000    1.0370295   -4.1077104      1728000    1186.9544        31450         1634 
 6300000   0.98259501    -4.037996      1728000    1188.9008        31500         1639 
 6310000   0.98273263   -3.9514855      1728000    1190.8394        31550         1642 
 6320000   0.99557971   -4.1776328      1728000    1192.7845        31600         1644 
 6330000   0.94521653   -4.1936305      1728000    1194.7113        31650         1646 
 6340000   0.98389711   -4.0066282      1728000    1196.6761        31700         1646 
 6350000   0.98007793   -4.0965631      1728000    1198.6186        31750         1646 
 6360000   0.97701679   -4.1347149      1728000    1200.5592        31800         1648 
 6370000   0.98638773   -4.1385162      1728000    1202.5194        31850         1650 
 6380000    1.0373201    -4.284472      1728000    1204.4424        31900         1651 
 6390000   0.91490323   -4.1256161      1728000    1206.4171        31950         1651 
 6400000   0.97322986   -4.0868388      1728000    1208.3635        32000         1651 
 6410000    1.1069584   -4.1066437      1728000    1210.3514        32050         1654 
 6420000    1.0524078   -4.1966792      1728000    1212.2543        32100         1656 
 6430000   0.98169815   -4.0363348      1728000    1214.1933        32150         1657 
 6440000    1.0620106   -4.0816369      1728000    1216.1202        32200         1658 
 6450000   0.98937555   -4.0774491      1728000    1218.0424        32250         1658 
 6460000    1.0093575   -4.0102222      1728000    1219.9985        32300         1659 
 6470000     1.016644   -4.1015122      1728000    1221.9335        32350         1661 
 6480000    1.0210498   -4.0535661      1728000    1223.8414        32400         1664 
 6490000   0.98950013   -4.0761459      1728000    1225.7377        32450         1667 
 6500000    1.0022183   -4.1236557      1728000    1227.6532        32500         1667 
 6510000    1.0337473   -4.0085581      1728000    1229.5836        32550         1667 
 6520000   0.95167478   -4.1312086      1728000    1231.5142        32600         1669 
 6530000   0.98711762   -4.0885841      1728000    1233.4018        32650         1673 
 6540000   0.93161845   -4.2338304      1728000    1235.3786        32700         1674 
 6550000      1.00191   -3.9571894      1728000    1237.3014        32750         1675 
 6560000   0.99746747   -4.0785129      1728000    1239.2682        32800         1676 
 6570000    0.9644629   -4.1454122      1728000    1241.2443        32850         1676 
 6580000    1.0262642   -4.3064563      1728000    1243.2302        32900         1676 
 6590000   0.96153471   -4.1912234      1728000    1245.1914        32950         1680 
 6600000   0.96220405    -4.186032      1728000    1247.1502        33000         1681 
 6610000    0.9701935   -4.0786584      1728000    1249.0747        33050         1683 
 6620000    1.0452194   -4.2115513      1728000      1251.04        33100         1683 
 6630000    1.0446321   -4.2527704      1728000    1253.0127        33150         1685 
 6640000   0.96926367   -4.1625133      1728000     1255.034        33200         1685 
 6650000    1.0369608   -4.2092893      1728000    1257.0813        33250         1686 
 6660000    1.0725265   -4.1615176      1728000    1259.0983        33300         1686 
 6670000    1.0105245   -4.1129246      1728000    1261.0574        33350         1687 
 6680000   0.95157689   -4.0864634      1728000    1263.0144        33400         1688 
 6690000    1.0139765   -4.0387415      1728000    1264.9244        33450         1691 
 6700000    1.0608539   -4.1186603      1728000    1266.8754        33500         1692 
 6710000   0.98233362   -4.1604077      1728000    1268.8663        33550         1694 
 6720000   0.98110316    -4.212663      1728000    1270.8412        33600         1694 
 6730000   0.97587143   -4.2861855      1728000    1272.7755        33650         1694 
 6740000    1.0362961   -4.1270868      1728000    1274.7344        33700         1695 
 6750000    1.0996235   -4.2160574      1728000     1276.735        33750         1695 
 6760000   0.98600173   -4.1440795      1728000     1278.729        33800         1696 
 6770000    1.0399634   -4.2187306      1728000    1280.7772        33850         1696 
 6780000   0.95055723   -4.1876927      1728000    1282.8584        33900         1697 
 6790000    1.0160391    -4.215927      1728000    1284.8805        33950         1697 
 6800000    1.0166087   -4.2034821      1728000    1286.9598        34000         1699 
 6810000    1.0021838   -4.3755411      1728000    1288.8745        34050         1702 
 6820000    1.0256269   -4.3213678      1728000    1290.8713        34100         1704 
 6830000    1.0470942   -4.2055888      1728000    1292.8374        34150         1705 
 6840000    1.0031286   -4.2481652      1728000    1294.8055        34200         1707 
 6850000   0.98706821   -4.1117953      1728000    1296.7644        34250         1708 
 6860000   0.98179587   -4.1758076      1728000    1298.7251        34300         1709 
 6870000    1.0169929   -4.1914446      1728000    1300.7201        34350         1710 
 6880000   0.97957111   -4.1652003      1728000    1302.7304        34400         1712 
 6890000   0.98734105   -4.3046474      1728000    1304.7095        34450         1712 
 6900000    1.0193047   -4.1245025      1728000    1306.7501        34500         1713 
 6910000    1.0552306   -4.2294814      1728000    1308.8011        34550         1713 
 6920000   0.98481498   -4.1979648      1728000    1310.8675        34600         1714 
 6930000    1.0344512    -4.171492      1728000    1312.8625        34650         1718 
 6940000   0.99698128   -4.1781548      1728000    1314.8293        34700         1720 
 6950000    1.0157527   -4.2222335      1728000    1316.8066        34750         1720 
 6960000   0.94231394   -4.1929433      1728000    1318.8225        34800         1720 
 6970000    1.0170273   -4.1770161      1728000    1320.7765        34850         1723 
 6980000    0.9832457   -4.1664522      1728000    1322.7624        34900         1728 
 6990000    1.0407671    -4.283092      1728000    1324.7614        34950         1729 
 7000000   0.99104602   -4.2932551      1728000    1326.7905        35000         1733 
 7010000   0.93225597   -4.2431928      1728000    1328.7861        35050         1733 
 7020000   0.99297205   -4.3259129      1728000    1330.8812        35100         1735 
 7030000   0.98710047   -4.2050952      1728000    1332.9041        35150         1735 
 7040000     1.001068    -4.321311      1728000    1334.9175        35200         1737 
 7050000     1.075405   -4.4263805      1728000    1336.8854        35250         1741 
 7060000   0.93441024   -4.1761016      1728000    1338.8472        35300         1742 
 7070000    0.9199565    -4.266152      1728000    1340.8819        35350         1744 
 7080000    1.0070863   -4.2702951      1728000    1342.9427        35400         1749 
 7090000    1.0237803    -4.340196      1728000    1344.9412        35450         1751 
 7100000    1.0577041   -4.4329047      1728000    1346.9883        35500         1752 
 7110000   0.92749103   -4.2978841      1728000    1349.0168        35550         1752 
 7120000   0.97343465   -4.2997894      1728000    1351.0664        35600         1753 
 7130000   0.98488019   -4.3614228      1728000    1353.0695        35650         1754 
 7140000   0.92706837   -4.2801209      1728000    1355.0733        35700         1756 
 7150000   0.91783487   -4.1878258      1728000    1357.0983        35750         1757 
 7160000    1.0684808   -4.2387789      1728000    1359.1085        35800         1757 
 7170000    1.0448373   -4.3008892      1728000    1361.0863        35850         1758 
 7180000   0.97746115    -4.365983      1728000    1363.1132        35900         1760 
 7190000    1.0250458   -4.2349049      1728000    1365.1445        35950         1763 
 7200000    1.0291546   -4.3666869      1728000    1367.2307        36000         1764 
 7210000    1.0059262   -4.3306289      1728000    1369.2474        36050         1764 
 7220000     1.025839   -4.4279037      1728000    1371.2385        36100         1764 
 7230000    1.0219197   -4.3338117      1728000    1373.2437        36150         1765 
 7240000    1.0547054    -4.347285      1728000    1375.2826        36200         1765 
 7250000   0.99371317   -4.3867687      1728000    1377.2938        36250         1765 
 7260000   0.99659862   -4.3731187      1728000    1379.3026        36300         1765 
 7270000   0.96201972   -4.4211255      1728000    1381.2917        36350         1766 
 7280000   0.99459543   -4.2798462      1728000    1383.3164        36400         1767 
 7290000    1.0081851    -4.346034      1728000    1385.2898        36450         1768 
 7300000    1.0290267   -4.1675787      1728000    1387.3058        36500         1768 
 7310000   0.97174421   -4.4104765      1728000    1389.2953        36550         1768 
 7320000   0.98168395    -4.335481      1728000    1391.3313        36600         1768 
 7330000   0.96859882   -4.3592303      1728000    1393.3556        36650         1768 
 7340000      1.01382   -4.3169356      1728000    1395.3661        36700         1769 
 7350000   0.98877862   -4.3623431      1728000    1397.3705        36750         1769 
 7360000    1.0160579   -4.2637652      1728000    1399.3676        36800         1769 
 7370000   0.96019275   -4.3675069      1728000    1401.3602        36850         1770 
 7380000    0.9936111   -4.3603111      1728000    1403.3628        36900         1770 
 7390000    1.0139787    -4.293546      1728000    1405.4592        36950         1771 
 7400000   0.95298327   -4.1679855      1728000    1407.5002        37000         1771 
 7410000    1.0141464   -4.3305311      1728000    1409.5853        37050         1773 
 7420000   0.97582224   -4.3912942      1728000    1411.6479        37100         1773 
 7430000    1.0116483   -4.2779732      1728000    1413.6504        37150         1773 
 7440000   0.98173874   -4.3805414      1728000    1415.6992        37200         1774 
 7450000    1.0522465   -4.4158608      1728000    1417.6873        37250         1776 
 7460000   0.99258712   -4.4361891      1728000    1419.6775        37300         1776 
 7470000   0.96203384   -4.3760302      1728000    1421.6966        37350         1776 
 7480000    1.0088378   -4.3065594      1728000    1423.7316        37400         1776 
 7490000    1.0595525    -4.338574      1728000    1425.7613        37450         1777 
 7500000    1.0319117    -4.404407      1728000    1427.7746        37500         1778 
 7510000    0.9753739   -4.2856268      1728000    1429.7603        37550         1779 
 7520000    1.0221935   -4.2737764      1728000    1431.7436        37600         1779 
 7530000   0.97863274   -4.3627471      1728000    1433.7453        37650         1780 
 7540000   0.98340786   -4.2968635      1728000    1435.7435        37700         1782 
 7550000    1.0195646   -4.2593975      1728000    1437.7446        37750         1783 
 7560000   0.98036982   -4.2336569      1728000    1439.7143        37800         1783 
 7570000    1.0463847   -4.3371853      1728000    1441.7436        37850         1783 
 7580000   0.98055161   -4.3245871      1728000    1443.7254        37900         1784 
 7590000    1.0097088   -4.2925759      1728000    1445.7686        37950         1786 
 7600000    1.0074547   -4.1882872      1728000    1447.7793        38000         1786 
 7610000   0.98015278   -4.1935764      1728000     1449.759        38050         1788 
 7620000    1.0280529   -4.3439019      1728000    1451.7347        38100         1788 
 7630000    1.0147076    -4.390575      1728000    1453.7376        38150         1790 
 7640000    1.0632445   -4.3457011      1728000    1455.7223        38200         1790 
 7650000   0.99972398   -4.2898589      1728000    1457.6832        38250         1790 
 7660000    1.0260318   -4.2549465      1728000    1459.6675        38300         1791 
 7670000    1.0147454   -4.3498266      1728000    1461.6641        38350         1792 
 7680000   0.98617389   -4.4058758      1728000    1463.6706        38400         1792 
 7690000    1.0611909   -4.2468085      1728000    1465.6643        38450         1793 
 7700000   0.99392049   -4.2843321      1728000    1467.6497        38500         1793 
 7710000    1.0040738   -4.2755078      1728000    1469.6933        38550         1793 
[...]
47970000    1.0977794   -4.3184495      1728000     9596.887       239850         3613 
47980000    1.0226953   -4.3632894      1728000    9598.8891       239900         3613 
47990000     1.034685   -4.4052096      1728000    9600.8653       239950         3613 
48000000    1.0308996   -4.4029172      1728000    9602.8453       240000         3614 
48010000   0.99538587   -4.3059789      1728000    9604.8494       240050         3614 
48020000    0.9626646   -4.4093504      1728000     9606.875       240100         3616 
48030000    1.0157802   -4.2718191      1728000    9608.8767       240150         3618 
48040000   0.97161585   -4.2329125      1728000    9610.8829       240200         3619 
48050000    1.0476941   -4.3578975      1728000    9612.8868       240250         3622 
48060000    0.9460939   -4.3404909      1728000    9614.8887       240300         3622 
48070000    1.0044696   -4.2213845      1728000    9616.9487       240350         3622 
48080000    1.0088671   -4.1797605      1728000     9619.007       240400         3622 
48090000    1.0470117   -4.2887674      1728000    9620.9786       240450         3622 
48100000   0.99065084    -4.286666      1728000    9622.9679       240500         3623 
48110000    1.0268611    -4.207799      1728000    9625.0266       240550         3623 
48120000    1.0307226   -4.3651766      1728000     9627.058       240600         3624 
48130000   0.94069148    -4.272538      1728000    9629.0834       240650         3624 
48140000   0.92799919   -4.3783147      1728000    9631.0684       240700         3625 
48150000   0.95224309   -4.3651349      1728000    9633.0733       240750         3625 
48160000     1.018274   -4.2728382      1728000      9635.09       240800         3626 
48170000    1.0730805   -4.2853489      1728000    9637.0471       240850         3627 
48180000   0.97182963   -4.2365704      1728000     9638.968       240900         3628 
48190000    1.0577903   -4.3309282      1728000    9640.9209       240950         3629 
48200000    1.0115007   -4.1047312      1728000     9642.864       241000         3630 
48210000   0.98895046   -4.4749744      1728000    9644.8259       241050         3633 
48220000    1.0800044    -4.211322      1728000     9646.826       241100         3635 
48230000    1.0267657   -4.3826355      1728000     9648.856       241150         3635 
48240000    1.0441563   -4.3114326      1728000    9650.8846       241200         3636 
48250000    1.0065356   -4.2618612      1728000    9652.9008       241250         3636 
48260000   0.96658249   -4.2938933      1728000    9654.9185       241300         3637 
48270000    1.0397985   -4.4030113      1728000     9656.935       241350         3638 
48280000   0.96358114   -4.2508214      1728000    9658.9321       241400         3640 
48290000    1.0444094   -4.3402562      1728000    9660.9358       241450         3640 
48300000   0.98632785   -4.3000003      1728000    9662.9909       241500         3640 
48310000   0.96198005   -4.2046549      1728000    9665.0208       241550         3640 
48320000    1.0783595   -4.2861362      1728000     9667.048       241600         3640 
48330000   0.98050377   -4.2307206      1728000    9669.0409       241650         3640 
48340000   0.97871122   -4.4232045      1728000     9671.012       241700         3641 
48350000   0.95257055   -4.2871321      1728000    9672.9762       241750         3642 
48360000   0.96163737   -4.4369101      1728000    9674.9301       241800         3643 
48370000    1.0436097   -4.4863564      1728000    9676.9451       241850         3643 
48380000    1.0648023   -4.3451223      1728000    9678.9531       241900         3643 
48390000    1.0221851    -4.370824      1728000     9680.922       241950         3643 
48400000    0.9721423   -4.3557751      1728000    9682.8963       242000         3644 
48410000    1.0021981   -4.3789806      1728000    9684.9011       242050         3644 
48420000    1.0630649   -4.3324215      1728000    9686.9102       242100         3645 
48430000    1.0054326   -4.3893646      1728000    9688.9155       242150         3646 
48440000     1.008366   -4.4254137      1728000    9690.9103       242200         3647 
48450000    1.0084994   -4.4079628      1728000    9692.9481       242250         3647 
48460000    1.0414556   -4.4386872      1728000     9694.989       242300         3647 
48470000   0.98380753   -4.4427372      1728000    9696.9487       242350         3647 
48480000   0.98998278   -4.3637111      1728000    9698.9101       242400         3647 
48490000    1.0345708    -4.311096      1728000    9701.0018       242450         3647 
48500000   0.99402469   -4.4082772      1728000    9703.0552       242500         3647 
48510000    1.0098205   -4.2326984      1728000    9705.0813       242550         3647 
48520000    1.0111527   -4.3551766      1728000     9707.178       242600         3647 
48530000    0.9683972   -4.2513393      1728000    9709.2251       242650         3647 
48540000   0.95623432   -4.3316917      1728000    9711.2698       242700         3647 
48550000   0.96016515   -4.3114338      1728000    9713.2896       242750         3648 
48560000    1.0342262   -4.4552884      1728000    9715.2377       242800         3648 
48570000   0.99815473   -4.4182252      1728000    9717.1521       242850         3648 
48580000   0.98645941   -4.4789414      1728000    9719.1391       242900         3648 
48590000   0.99882472   -4.3075261      1728000    9721.1306       242950         3648 
48600000    1.0233962   -4.3222489      1728000    9723.1231       243000         3649 
48610000   0.98800667   -4.3240822      1728000    9725.1442       243050         3649 
48620000    1.0170589   -4.1839792      1728000    9727.1305       243100         3651 
48630000   0.99710315   -4.4116927      1728000    9729.1157       243150         3651 
48640000    1.0018484   -4.4264334      1728000     9731.126       243200         3651 
48650000     1.030664   -4.3867164      1728000    9733.1057       243250         3651 
48660000    1.0162661   -4.4061809      1728000    9735.1251       243300         3652 
48670000    1.0435415   -4.1915873      1728000    9737.0977       243350         3653 
48680000   0.99041552   -4.3252765      1728000    9739.0573       243400         3654 
48690000   0.98259699   -4.3474854      1728000     9741.066       243450         3654 
48700000   0.95613712   -4.2682171      1728000    9743.0844       243500         3654 
48710000    1.0174181   -4.3825502      1728000    9745.1161       243550         3654 
48720000    1.0235001   -4.2270501      1728000    9747.1536       243600         3654 
48730000    1.0348214   -4.2054966      1728000     9749.128       243650         3656 
48740000    1.0139493   -4.2372184      1728000    9751.1223       243700         3656 
48750000   0.96799305   -4.2830316      1728000    9753.1022       243750         3656 
48760000    1.0705329   -4.1705787      1728000    9755.1307       243800         3656 
48770000    1.0006648    -4.399971      1728000    9757.1632       243850         3658 
48780000   0.98775655   -4.3268121      1728000     9759.179       243900         3658 
48790000    1.0020847   -4.1584581      1728000    9761.2074       243950         3658 
48800000   0.97943654   -4.3071498      1728000    9763.2541       244000         3658 
48810000    1.0754581   -4.2934459      1728000    9765.2829       244050         3659 
48820000    1.0365104   -4.3546127      1728000    9767.2735       244100         3660 
48830000    1.0224745   -4.3043102      1728000    9769.2263       244150         3661 
48840000    1.0585964   -4.2697809      1728000    9771.2592       244200         3662 
48850000    1.0178748   -4.4269026      1728000    9773.2574       244250         3662 
48860000   0.98863715   -4.2745238      1728000    9775.2781       244300         3662 
48870000    1.0592886   -4.3301845      1728000    9777.2697       244350         3662 
48880000     1.056568   -4.3890679      1728000    9779.2353       244400         3662 
48890000   0.95534602   -4.3835416      1728000    9781.2272       244450         3662 
48900000    1.0007953   -4.3523769      1728000    9783.1935       244500         3662 
48910000   0.98293493   -4.3727235      1728000    9785.1495       244550         3664 
48920000    1.0702292   -4.2043177      1728000    9787.1658       244600         3664 
48930000   0.97215742   -4.3675414      1728000    9789.2115       244650         3664 
48940000    1.0350869   -4.3749945      1728000     9791.222       244700         3664 
48950000    1.0459959   -4.2012719      1728000      9793.23       244750         3664 
48960000   0.99854993   -4.2776106      1728000    9795.2613       244800         3665 
48970000   0.98341339   -4.3172316      1728000    9797.2769       244850         3665 
48980000   0.99426359   -4.2774958      1728000    9799.2362       244900         3665 
48990000    1.0337808   -4.3607525      1728000    9801.1706       244950         3665 
49000000    1.0540902   -4.1898365      1728000    9803.1553       245000         3665 
49010000   0.97123701    -4.288918      1728000    9805.1315       245050         3666 
49020000    1.0519196   -4.3448059      1728000    9807.1717       245100         3666 
49030000   0.97739478   -4.3315944      1728000    9809.1564       245150         3666 
49040000    1.0358092   -4.3101406      1728000    9811.1909       245200         3667 
49050000    1.0769663   -4.3264713      1728000    9813.2548       245250         3669 
49060000     1.075629   -4.3106877      1728000    9815.2501       245300         3669 
49070000   0.96355698   -4.2992514      1728000    9817.2122       245350         3670 
49080000   0.96412171   -4.3232146      1728000    9819.2254       245400         3671 
49090000    1.0521669   -4.2495271      1728000    9821.2371       245450         3672 
49100000   0.98178609   -4.2983854      1728000    9823.2532       245500         3672 
49110000   0.97732194   -4.2588544      1728000     9825.292       245550         3673 
49120000   0.98895102   -4.3731804      1728000    9827.3051       245600         3674 
49130000    1.0253956   -4.2876485      1728000    9829.2734       245650         3674 
49140000    1.0111938   -4.4265595      1728000    9831.2371       245700         3675 
49150000   0.95326346   -4.2306121      1728000    9833.2761       245750         3676 
49160000   0.99246991   -4.1834093      1728000    9835.2969       245800         3676 
49170000   0.99213428   -4.2263697      1728000    9837.3468       245850         3676 
49180000    1.0391569   -4.2683644      1728000    9839.3443       245900         3677 
49190000   0.96565896   -4.3708454      1728000    9841.3446       245950         3677 
49200000     1.012586   -4.4417119      1728000    9843.3416       246000         3680 
49210000    1.0195498   -4.3331135      1728000    9845.3536       246050         3682 
49220000    1.0184222   -4.2306555      1728000    9847.3433       246100         3683 
49230000   0.93229243   -4.2714762      1728000    9849.3299       246150         3683 
49240000    1.0306316   -4.3967153      1728000    9851.3161       246200         3683 
49250000   0.97755943   -4.2601774      1728000    9853.3028       246250         3684 
49260000    1.0085439   -4.3662508      1728000    9855.3143       246300         3685 
49270000   0.97470285   -4.4385847      1728000    9857.4431       246350         3686 
49280000   0.94091565   -4.2519617      1728000    9859.6225       246400         3686 
49290000   0.99634307   -4.3340383      1728000    9861.7206       246450         3686 
49300000    1.0147383   -4.4305685      1728000    9863.7503       246500         3687 
49310000   0.99912831   -4.3179841      1728000    9865.7791       246550         3688 
49320000    1.0206594   -4.2769156      1728000    9867.7952       246600         3689 
49330000    1.0167027   -4.2577431      1728000    9869.8824       246650         3690 
49340000   0.94207914   -4.1432751      1728000     9871.835       246700         3691 
49350000    1.0078445   -4.3412362      1728000    9873.8441       246750         3692 
49360000    1.0172213   -4.1884345      1728000    9875.8558       246800         3692 
49370000   0.97271481   -4.2861838      1728000    9877.7849       246850         3692 
49380000    1.0464544   -4.3399925      1728000    9879.7711       246900         3693 
49390000    1.0216885   -4.2246613      1728000    9881.7473       246950         3693 
49400000    1.0335096   -4.3023306      1728000    9883.7544       247000         3695 
49410000   0.97240191   -4.3575907      1728000    9885.7397       247050         3696 
49420000    1.0774233   -4.3174188      1728000    9887.7062       247100         3697 
49430000   0.99227807    -4.407736      1728000    9889.7012       247150         3699 
49440000     1.010172   -4.3938211      1728000    9891.7572       247200         3699 
49450000    1.0396189   -4.3074005      1728000    9893.8024       247250         3701 
49460000    1.0026224   -4.3667259      1728000    9895.8503       247300         3701 
49470000    1.0616337   -4.4721297      1728000    9897.8163       247350         3701 
49480000   0.98267844   -4.3333329      1728000    9899.7834       247400         3701 
49490000   0.97775018   -4.4556952      1728000    9901.8355       247450         3701 
49500000    1.0596807   -4.4283685      1728000    9903.9411       247500         3701 
49510000   0.98435437   -4.4879191      1728000    9906.0254       247550         3702 
49520000   0.97379104   -4.3822484      1728000    9908.1501       247600         3702 
49530000    1.0646543   -4.3661013      1728000    9910.2002       247650         3702 
49540000    1.0109755   -4.3865093      1728000    9912.2386       247700         3702 
49550000    1.0685226   -4.2585723      1728000    9914.2521       247750         3703 
49560000    1.0390477    -4.294104      1728000    9916.2852       247800         3703 
49570000   0.95484004   -4.2602038      1728000    9918.3087       247850         3703 
49580000    1.0781246   -4.4540153      1728000    9920.3582       247900         3703 
49590000    1.0172375   -4.3512813      1728000    9922.4142       247950         3704 
49600000   0.98072451   -4.4316859      1728000    9924.4649       248000         3704 
49610000   0.96585223    -4.417206      1728000    9926.4842       248050         3704 
49620000    1.0184084   -4.3728243      1728000     9928.461       248100         3705 
49630000    1.0159111   -4.3313968      1728000    9930.4685       248150         3706 
49640000   0.96776733   -4.4443784      1728000    9932.4925       248200         3706 
49650000    1.0114549   -4.2784936      1728000    9934.5138       248250         3706 
49660000    1.0473584   -4.3870195      1728000    9936.5281       248300         3706 
49670000    1.0328085   -4.4677234      1728000    9938.4806       248350         3706 
49680000    0.9306339   -4.3678081      1728000    9940.5424       248400         3706 
49690000   0.93610718   -4.4398432      1728000    9942.5342       248450         3706 
49700000    1.0580487   -4.3720747      1728000     9944.549       248500         3706 
49710000    1.0155119   -4.2798776      1728000    9946.5521       248550         3706 
49720000    1.0072492   -4.3885974      1728000    9948.5297       248600         3706 
49730000    1.0088883   -4.4234764      1728000    9950.5367       248650         3707 
49740000    1.0395664   -4.2997619      1728000    9952.4869       248700         3707 
49750000    1.0516577   -4.4554915      1728000    9954.4555       248750         3708 
49760000    1.0364137    -4.299037      1728000    9956.4842       248800         3708 
49770000   0.93059176   -4.2803983      1728000    9958.4726       248850         3709 
49780000    1.0645858    -4.285984      1728000    9960.5173       248900         3711 
49790000   0.99950035   -4.2511931      1728000    9962.5542       248950         3711 
49800000   0.94462465   -4.4235902      1728000    9964.5623       249000         3711 
49810000   0.93521442   -4.2917449      1728000     9966.616       249050         3711 
49820000   0.97109146   -4.3684906      1728000    9968.6327       249100         3711 
49830000   0.93677767   -4.3022638      1728000    9970.6251       249150         3711 
49840000    1.0449947   -4.3578225      1728000     9972.572       249200         3711 
49850000    1.0780161   -4.3293665      1728000    9974.5186       249250         3711 
49860000   0.92600045   -4.3246969      1728000    9976.4555       249300         3711 
49870000    1.0409511   -4.4207969      1728000    9978.4058       249350         3711 
49880000    1.0225709   -4.3895678      1728000     9980.428       249400         3711 
49890000    1.0269253   -4.3733304      1728000    9982.4101       249450         3713 
49900000   0.98084613   -4.2562462      1728000    9984.3873       249500         3713 
49910000   0.98741075   -4.2538075      1728000    9986.3984       249550         3713 
49920000   0.97154031   -4.3281124      1728000    9988.3958       249600         3714 
49930000   0.99169953   -4.3611117      1728000    9990.3655       249650         3714 
49940000   0.99341585   -4.2251755      1728000    9992.3195       249700         3714 
49950000    1.0115691   -4.4258096      1728000    9994.3365       249750         3715 
49960000    1.0131637   -4.2055352      1728000    9996.3316       249800         3716 
49970000    1.0157198   -4.3024772      1728000    9998.3394       249850         3717 
49980000   0.94114631    -4.353174      1728000     10000.36       249900         3718 
49990000    1.0248823   -4.2803975      1728000    10002.397       249950         3718 
50000000    1.0187981   -4.2663815      1728000    10004.372       250000         3718 
Loop time of 10004.4 on 1 procs for 50000000 steps with 500 atoms

Performance: 4318111.831 tau/day, 4997.815 timesteps/s
99.4% CPU use with 1 MPI tasks x 1 OpenMP threads

MPI task timing breakdown:
Section |  min time  |  avg time  |  max time  |%varavg| %total
---------------------------------------------------------------
Pair    | 5185.1     | 5185.1     | 5185.1     |   0.0 | 51.83
Bond    | 1135.1     | 1135.1     | 1135.1     |   0.0 | 11.35
Neigh   | 1718.1     | 1718.1     | 1718.1     |   0.0 | 17.17
Comm    | 38.444     | 38.444     | 38.444     |   0.0 |  0.38
Output  | 16.267     | 16.267     | 16.267     |   0.0 |  0.16
Modify  | 1833.8     | 1833.8     | 1833.8     |   0.0 | 18.33
Other   |            | 77.56      |            |       |  0.78

Nlocal:    500 ave 500 max 500 min
Histogram: 1 0 0 0 0 0 0 0 0 0
Nghost:    0 ave 0 max 0 min
Histogram: 1 0 0 0 0 0 0 0 0 0
Neighs:    15371 ave 15371 max 15371 min
Histogram: 1 0 0 0 0 0 0 0 0 0

Total # of neighbors = 15371
Ave neighs/atom = 30.742
Ave special neighs/atom = 5.976
Neighbor list builds = 2478988
Dangerous builds = 0

################
## ULOOP    ####
################
clear
OMP_NUM_THREADS environment is not set. Defaulting to 1 thread. (../comm.cpp:87)
  using 1 OpenMP thread(s) per MPI task
variable rname delete
variable simname delete
variable folder delete
variable seed delete
variable E delete
variable RW delete
variable SimOutType delete
variable SimInType delete
variable jn delete
variable jf delete

next jbn
Increment via next: value 2 on partition 0
jump SELF #last line!!!

### If e.g. I run this on 10 partitions of 1 processor,
### and initialise the variable with 'uloop N'
### it will run 10 simulations with 'jobnumber' taking
### values 1-10. Then when a particular simulation finishes, the
### script will be run again with the next value of jobnumber,
### until N simulations have been run.
## SO ULOOP IS "SERIAL" BUT FOR SURE 10x1 PROCs ARE ALWAYS BUSY
Total wall time: 2:46:55
