LAMMPS (1 Feb 2019)
OMP_NUM_THREADS environment is not set. Defaulting to 1 thread. (../comm.cpp:87)
  using 1 OpenMP thread(s) per MPI task
####################################
####	ULOOP			####
####################################
variable jbn uloop 1  # run n simulations
variable startfrom equal 0
variable jn equal ${jbn}+${startfrom}
variable jn equal 1+${startfrom}
variable jn equal 1+0
print ${jn}
print 1
1
variable seed equal (11+4)*51-2*11
variable seedr equal (11+2)*22

#
variable N equal 2000
timestep 0.01
variable Dt equal 100000
variable Temp equal 1.0
variable Norm equal 0.88585294441338
if "${jn} <= 20" then "variable E equal 1.4"
variable E equal 1.4
#if "${jn} > 2 && ${jn} <= 4" then "variable E equal 1.5"
#if "${jn} > 4 && ${jn} <= 6" then "variable E equal 2.0"
#if "${jn} > 6 && ${jn} <= 8" then "variable E equal 2.5"
#if "${jn} > 8 && ${jn} <= 10" then "variable E equal 3.0"
#if "${jn} > 10 && ${jn} <= 12" then "variable E equal 3.5"
#if "${jn} > 12 && ${jn} <= 14" then "variable E equal 4.0"
#if "${jn} > 14 && ${jn} <= 16" then "variable E equal 4.5"
#if "${jn} > 16 && ${jn} <= 18" then "variable E equal 5.0"

#
####################################
####	DEFINTIONS 	########
####################################
#
variable N equal 500
variable folder index RW_Dt${Dt}_E${E}
variable folder index RW_Dt100000_E${E}
variable folder index RW_Dt100000_E1.4
shell mkdir ${folder}
shell mkdir RW_Dt100000_E1.4
variable SimOutType index RW${jn}Dt${Dt}E${E}
variable SimOutType index RW1Dt${Dt}E${E}
variable SimOutType index RW1Dt100000E${E}
variable SimOutType index RW1Dt100000E1.4
variable rname index INIT/Poly.N${N}.dat
variable rname index INIT/Poly.N500.dat
variable simname index Poly.N${N}.${SimOutType}
variable simname index Poly.N500.${SimOutType}
variable simname index Poly.N500.RW1Dt100000E1.4
#
units lj
atom_style angle
boundary        p p p
neighbor 1.3 bin
neigh_modify every 5 delay 5 check yes
#
restart 1000000 ${folder}/Restart.neutr.${simname}.
restart 1000000 RW_Dt100000_E1.4/Restart.neutr.${simname}.
restart 1000000 RW_Dt100000_E1.4/Restart.neutr.Poly.N500.RW1Dt100000E1.4.
print ${rname}
print INIT/Poly.N500.dat
INIT/Poly.N500.dat
read_data ${rname}
read_data INIT/Poly.N500.dat
  orthogonal box = (-50 -50 -50) to (50 50 50)
  1 by 1 by 1 MPI processor grid
  reading atoms ...
  500 atoms
  scanning bonds ...
  1 = max bonds/atom
  scanning angles ...
  1 = max angles/atom
  reading bonds ...
  499 bonds
  reading angles ...
  498 angles
  2 = max # of 1-2 neighbors
  2 = max # of 1-3 neighbors
  4 = max # of 1-4 neighbors
  6 = max # of special neighbors

####################################
####	GROUPS	             #######
####################################
group blue type 1
500 atoms in group blue
group red type 2
0 atoms in group red
group grey type 3
0 atoms in group grey

change_box all x final -60 60 y final -60 60 z final -60 60 boundary f f f units box
  orthogonal box = (-60 -50 -50) to (60 50 50)
  orthogonal box = (-60 -60 -50) to (60 60 50)
  orthogonal box = (-60 -60 -60) to (60 60 60)

####################################
####	ANGLE	             #######
####################################
angle_style   cosine
angle_coeff  1 3.0  #20 sigma for realistic DNA (1 bead = 2.5 nm)

####################################
####	PAIRS	             #######
####################################
pair_style  soft 2.5
pair_modify     shift yes
pair_coeff      * * 20 1.12246152962189

variable prefactor equal ramp(0,50)
fix pushapart all adapt 1 pair soft a * * v_prefactor

####################################
####	FENE	             #######
####################################
bond_style   fene
special_bonds fene#<=== I M P O R T A N T (new command)
  2 = max # of 1-2 neighbors
  6 = max # of special neighbors
bond_coeff   1  30.0   1.6  1.0  1.0

####################################
####	FIXES	             #######
####################################
fix 1 all   nve
fix 2 all  langevin   1.0 1.0   1.0   ${seed}
fix 2 all  langevin   1.0 1.0   1.0   743

####################################
####	WALL	             #######
####################################
fix WALL all wall/lj126 xhi EDGE 1.0 1.0 1.122462048 xlo EDGE 1.0 1.0 1.122462048 yhi EDGE 1.0 1.0 1.122462048 ylo EDGE 1.0 1.0 1.122462048 zhi EDGE 1.0 1.0 1.122462048 zlo EDGE 1.0 1.0 1.122462048 units box

####################################
####	RESET TIME             #######
####################################
reset_timestep 0

####################################
####	SWAP - ATOMS         #######
####################################
##HERE I USE fix atom/swap to attempt an atom swap between types
## In theory, I don't need to do a loop as the fix does it every
## N timesteps
##FIRST Dt IS NOT SWAPPING ANYWAY!
group Polymer type 1 2 3
500 atoms in group Polymer
fix Aswap Polymer atom/swap ${Dt} ${N} ${seed} ${Temp} semi-grand yes types 1 2 3 mu 0.0 0.0 0.0
fix Aswap Polymer atom/swap 100000 ${N} ${seed} ${Temp} semi-grand yes types 1 2 3 mu 0.0 0.0 0.0
fix Aswap Polymer atom/swap 100000 500 ${seed} ${Temp} semi-grand yes types 1 2 3 mu 0.0 0.0 0.0
fix Aswap Polymer atom/swap 100000 500 743 ${Temp} semi-grand yes types 1 2 3 mu 0.0 0.0 0.0
fix Aswap Polymer atom/swap 100000 500 743 1 semi-grand yes types 1 2 3 mu 0.0 0.0 0.0
variable Swaps equal f_Aswap[2]/1.0
variable Attempts equal f_Aswap[1]/1.0

####################################
####    THERMO AND INTEGRATION
####################################
timestep 0.01
thermo 10000
thermo_style   custom   step  temp  epair vol cpu v_Attempts v_Swaps

####################################
####	EQUILIBRATION        #######
####################################
#THIS IS TO TEST
#PUT LARGER NUMBER WHEN DOING ACTUAL SIMULATIONS
run 100000
Neighbor list info ...
  update every 5 steps, delay 5 steps, check yes
  max neighbors/atom: 2000, page size: 100000
  master list distance cutoff = 2.42246
  ghost atom cutoff = 2.42246
  binsize = 1.21123, bins = 100 100 100
  1 neighbor lists, perpetual/occasional/extra = 1 0 0
  (1) pair soft, perpetual
      attributes: half, newton on
      pair build: half/bin/newton
      stencil: half/bin/3d/newton
      bin: standard
Per MPI rank memory allocation (min/avg/max) = 9.234 | 9.234 | 9.234 Mbytes
Step Temp E_pair Volume CPU v_Attempts v_Swaps 
       0            0            0      1728000            0            0            0 
   10000   0.99546959 0.0012152918      1728000    1.1038871          500          500 
   20000     1.017267  0.005066189      1728000    2.0089669          500          500 
   30000   0.99193115  0.006000438      1728000     2.872082          500          500 
   40000    1.0192509 0.0044975486      1728000     3.736196          500          500 
   50000   0.98706984 0.0073441782      1728000     4.601372          500          500 
   60000     1.015873 0.0013372895      1728000    5.4984529          500          500 
   70000   0.98741272 0.0080565379      1728000      6.37955          500          500 
   80000    1.0063218 0.0028956377      1728000    7.2586541          500          500 
   90000    1.0253261 0.00029157261      1728000    8.1118121          500          500 
  100000    1.0050939 0.0055565379      1728000      8.96594          500          500 
Loop time of 8.96792 on 1 procs for 100000 steps with 500 atoms

Performance: 9634341.004 tau/day, 11150.858 timesteps/s
99.5% CPU use with 1 MPI tasks x 1 OpenMP threads

MPI task timing breakdown:
Section |  min time  |  avg time  |  max time  |%varavg| %total
---------------------------------------------------------------
Pair    | 0.65817    | 0.65817    | 0.65817    |   0.0 |  7.34
Bond    | 2.6029     | 2.6029     | 2.6029     |   0.0 | 29.02
Neigh   | 2.5599     | 2.5599     | 2.5599     |   0.0 | 28.54
Comm    | 0.11486    | 0.11486    | 0.11486    |   0.0 |  1.28
Output  | 0.020893   | 0.020893   | 0.020893   |   0.0 |  0.23
Modify  | 2.9103     | 2.9103     | 2.9103     |   0.0 | 32.45
Other   |            | 0.101      |            |       |  1.13

Nlocal:    500 ave 500 max 500 min
Histogram: 1 0 0 0 0 0 0 0 0 0
Nghost:    0 ave 0 max 0 min
Histogram: 1 0 0 0 0 0 0 0 0 0
Neighs:    831 ave 831 max 831 min
Histogram: 1 0 0 0 0 0 0 0 0 0

Total # of neighbors = 831
Ave neighs/atom = 1.662
Ave special neighs/atom = 1.996
Neighbor list builds = 4472
Dangerous builds = 0


unfix pushapart
unfix Aswap
reset_timestep 0

#######################################################
####	PAIRS -- REPULSIVE + REDS FERROMAGN 	#######
#######################################################
#ENERGYSCALE
variable Et equal ${E}/${Norm}
variable Et equal 1.4/${Norm}
variable Et equal 1.4/0.88585294441338

pair_style  lj/cut 1.8
pair_modify     shift yes
pair_coeff      * *  1.0 1.0 1.12246152962189

pair_coeff      1 1  ${Et} 1.0 1.8
pair_coeff      1 1  1.5803977497948 1.0 1.8
pair_coeff      1 2  1.0 1.0 1.12246152962189
pair_coeff      1 3  1.0 1.0 1.12246152962189

pair_coeff      2 2  ${Et} 1.0 1.8
pair_coeff      2 2  1.5803977497948 1.0 1.8
pair_coeff      2 3  1.0 1.0 1.12246152962189

pair_coeff      3 3  1.0 1.0 1.12246152962189
#######################################################


########################
## PER PRIMI VICINI   ##
########################
bond_style harmonic
special_bonds lj 1 1 1
  2 = max # of 1-2 neighbors
  2 = max # of 1-3 neighbors
  4 = max # of 1-4 neighbors
  6 = max # of special neighbors
bond_coeff 1 200 1.12246
#bond_style fene
#special_bonds fene
#bond_coeff 1 30 1.6 1.0 1.0

########################
## RECOLOR #############
########################
group Polymer type 1 2 3
500 atoms in group Polymer
variable smooth equal 10
variable dtsmooth equal ${Dt}/${smooth}
variable dtsmooth equal 100000/${smooth}
variable dtsmooth equal 100000/10
variable Nsmooth equal ${N}/${smooth}
variable Nsmooth equal 500/${smooth}
variable Nsmooth equal 500/10
fix Aswap Polymer atom/swap ${dtsmooth} ${Nsmooth} ${seedr} ${Temp} semi-grand yes types 1 2 3 mu 0.0 0.0 0.0
fix Aswap Polymer atom/swap 10000 ${Nsmooth} ${seedr} ${Temp} semi-grand yes types 1 2 3 mu 0.0 0.0 0.0
fix Aswap Polymer atom/swap 10000 50 ${seedr} ${Temp} semi-grand yes types 1 2 3 mu 0.0 0.0 0.0
fix Aswap Polymer atom/swap 10000 50 286 ${Temp} semi-grand yes types 1 2 3 mu 0.0 0.0 0.0
fix Aswap Polymer atom/swap 10000 50 286 1 semi-grand yes types 1 2 3 mu 0.0 0.0 0.0
variable Swaps equal f_Aswap[2]/1.0
variable Attempts equal f_Aswap[1]/1.0

####################################
####    DUMPS                 #######
####################################
##VMD
#dump 1 all custom 1000 ${folder}/${simname}.lammpstrj id mol type x y z
#dump_modify  1   format "%d %d %d %.5f %.5f %.5f"

##DAT
dump 2 all custom 100000 ${folder}/${simname}.* id type x y z ix iy iz
dump 2 all custom 100000 RW_Dt100000_E1.4/${simname}.* id type x y z ix iy iz
dump 2 all custom 100000 RW_Dt100000_E1.4/Poly.N500.RW1Dt100000E1.4.* id type x y z ix iy iz
#dump_modify   2   format "%d %d %.5f %.5f %.5f %d %d %d"

##CFG
#dump 3 all cfg 1000 ${folder}/CFG/${simname}.tot.*.cfg mass type xs ys zs id mol type
#dump_modify 3 element N C O Ca Xe

##XYZ
dump 4 all xyz 100000 XYZ_${simname}.xyz
dump 4 all xyz 100000 XYZ_Poly.N500.RW1Dt100000E1.4.xyz
dump_modify 4 element C O N Xe

###########################
thermo 10000
thermo_style   custom   step  temp  epair vol cpu v_Attempts v_Swaps
run 50000000
Neighbor list info ...
  update every 5 steps, delay 5 steps, check yes
  max neighbors/atom: 2000, page size: 100000
  master list distance cutoff = 3.1
  ghost atom cutoff = 3.1
  binsize = 1.55, bins = 78 78 78
  1 neighbor lists, perpetual/occasional/extra = 1 0 0
  (1) pair lj/cut, perpetual
      attributes: half, newton on
      pair build: half/bin/newton
      stencil: half/bin/3d/newton
      bin: standard
Per MPI rank memory allocation (min/avg/max) = 9.566 | 9.566 | 9.566 Mbytes
Step Temp E_pair Volume CPU v_Attempts v_Swaps 
       0    1.0050939    2.1911676      1728000            0            0            0 
   10000    1.0086706  -0.48486581      1728000   0.86712885           50           43 
   20000   0.98138262  -0.55352371      1728000    1.7532158          100           76 
   30000    1.0340303  -0.54280011      1728000     2.659287          150          108 
   40000    1.0328039  -0.58434156      1728000    3.5643599          200          138 
   50000    1.0296922  -0.61443928      1728000    4.4504628          250          172 
   60000     1.025283  -0.77181185      1728000    5.3789949          300          198 
   70000   0.98455433  -0.80657844      1728000     6.312989          350          233 
   80000    0.9572679  -0.89258612      1728000    7.2959919          400          254 
   90000    1.0352133   -1.0188014      1728000    8.2991588          450          278 
  100000   0.97003223   -1.0512262      1728000    9.3318088          500          302 
  110000     1.047463   -1.1227581      1728000    10.365805          550          322 
  120000    1.0410413    -1.329657      1728000    11.465692          600          346 
  130000      0.98756   -1.6718217      1728000    12.580635          650          369 
  140000    1.0119034   -1.7376102      1728000    13.781404          700          392 
  150000    1.0156641   -1.8850604      1728000      15.0541          750          411 
  160000     1.030465   -1.9443274      1728000    16.346776          800          429 
  170000    1.0226103   -2.1034556      1728000    17.651439          850          449 
  180000    1.0136462   -2.1692875      1728000    19.030038          900          462 
  190000    1.0174672   -2.2622517      1728000    20.385637          950          476 
  200000    1.0746772    -2.265309      1728000    21.811176         1000          487 
  210000   0.96704043   -2.4381634      1728000     23.24377         1050          499 
  220000    1.0889921   -2.3873235      1728000    24.635134         1100          509 
  230000    1.0089327   -2.4614981      1728000    26.079719         1150          515 
  240000   0.97066761   -2.6099162      1728000    27.492284         1200          530 
  250000   0.99503971   -2.5636089      1728000    28.911794         1250          542 
  260000    1.0720813   -2.6146199      1728000    30.339324         1300          551 
  270000    1.0107613   -2.7013963      1728000    31.785828         1350          566 
  280000   0.99887938   -2.6948738      1728000    33.320279         1400          574 
  290000   0.98175302    -2.853271      1728000    34.814732         1450          581 
  300000   0.98999821   -2.8695875      1728000    36.377103         1500          590 
  310000    1.0081373   -2.9659854      1728000    37.981445         1550          604 
  320000   0.98859825   -3.2042211      1728000    39.614784         1600          611 
  330000   0.97748047   -3.2396265      1728000    41.225569         1650          619 
  340000   0.98574962   -3.2511926      1728000    42.800568         1700          627 
  350000    1.0061546   -3.2953467      1728000    44.437932         1750          636 
  360000    1.0402872   -3.3659607      1728000     46.35787         1800          648 
  370000    0.9783707   -3.4342448      1728000    48.047225         1850          651 
  380000    1.0300517   -3.5970598      1728000    49.737529         1900          657 
  390000   0.97702597    -3.403695      1728000    51.388995         1950          666 
  400000     1.055714   -3.5799089      1728000    53.031297         2000          675 
  410000    1.0340325   -3.6684072      1728000    54.713106         2050          681 
  420000    1.0116274   -3.7514162      1728000    56.442335         2100          686 
  430000   0.98371055   -3.5632758      1728000    58.131737         2150          692 
  440000   0.96596096   -3.4762148      1728000    59.802357         2200          700 
  450000   0.98084108   -3.6497121      1728000    61.485653         2250          706 
  460000   0.97513047   -3.7942075      1728000    63.157587         2300          714 
  470000    1.0015025   -3.7235813      1728000     64.88499         2350          720 
  480000   0.98644232     -3.69486      1728000    66.618515         2400          724 
  490000   0.95083498   -3.8551539      1728000    68.355035         2450          729 
  500000   0.99888901   -3.8226242      1728000    70.124242         2500          734 
  510000    1.0112426   -3.8097224      1728000    71.918404         2550          738 
  520000     1.026282   -3.8213111      1728000    73.708581         2600          744 
  530000    1.0260718   -3.9209012      1728000    75.426846         2650          747 
  540000   0.99436102   -3.9692155      1728000    77.190055         2700          755 
  550000    1.0329743   -3.9087987      1728000    78.917475         2750          759 
  560000   0.96417747   -3.7968616      1728000    80.634123         2800          761 
  570000     1.002844   -3.9281669      1728000    82.362257         2850          762 
  580000   0.95244936   -3.9297697      1728000    84.143025         2900          769 
  590000   0.99320882   -4.1364299      1728000    85.901206         2950          771 
  600000   0.99811595   -4.2237397      1728000    87.711402         3000          776 
  610000    1.0132164   -4.0319994      1728000    89.520548         3050          783 
  620000   0.96344189   -4.1789595      1728000     91.34791         3100          789 
  630000    1.0079687   -4.2324747      1728000    93.180032         3150          795 
  640000   0.95313861   -4.2856051      1728000    95.033134         3200          795 
  650000   0.95381211    -4.202527      1728000    96.881244         3250          798 
  660000     1.031893   -4.2029252      1728000    98.674777         3300          803 
  670000    1.0713875   -4.2979719      1728000    100.52987         3350          808 
  680000    1.0265806    -4.223816      1728000    102.41195         3400          808 
  690000     1.014518   -4.1107836      1728000    104.22708         3450          811 
  700000   0.99886474   -4.2600674      1728000    106.01206         3500          815 
  710000    1.0198674   -4.2278646      1728000    107.78523         3550          816 
  720000   0.96799143   -4.1598122      1728000     109.5674         3600          818 
  730000   0.93596933    -4.184505      1728000    111.41155         3650          822 
  740000    1.0532475   -4.2655208      1728000    113.24607         3700          824 
  750000       1.0234   -4.1026305      1728000    115.03823         3750          827 
  760000    1.0039274   -4.2562679      1728000    116.87036         3800          829 
  770000   0.96225775   -4.2436132      1728000    118.70847         3850          830 
  780000    1.0269998   -4.2483101      1728000    120.55857         3900          832 
  790000   0.95046511   -4.2656666      1728000     122.3997         3950          836 
  800000    1.0692661   -4.2308348      1728000    124.24502         4000          838 
  810000   0.95674553   -4.0328069      1728000    126.17605         4050          839 
  820000    1.0463342    -4.280192      1728000     127.9842         4100          841 
  830000    1.0080085   -4.2459723      1728000    129.85428         4150          845 
  840000    1.0628214   -4.1052931      1728000     131.7004         4200          847 
  850000    1.0050751   -4.2127576      1728000    133.59344         4250          849 
  860000    1.0236977   -4.1773825      1728000    135.45254         4300          851 
  870000   0.97628646   -4.2156845      1728000    137.37358         4350          852 
  880000   0.97245437   -4.2546444      1728000    139.24965         4400          854 
  890000    1.0654689    -4.230434      1728000    141.08778         4450          855 
  900000   0.98857448    -4.243985      1728000     142.9199         4500          856 
  910000    1.0135456     -4.32202      1728000    144.70534         4550          859 
  920000    1.0886104   -4.2751242      1728000    146.51096         4600          862 
  930000   0.99422443   -4.1784085      1728000    148.31643         4650          865 
  940000   0.98431096   -4.1150827      1728000    150.07803         4700          868 
  950000    1.0618583   -4.3620922      1728000    151.83832         4750          872 
  960000     1.055073   -4.1816883      1728000    153.69098         4800          874 
  970000    0.9755702   -4.3111341      1728000    155.49712         4850          875 
  980000   0.97768873     -4.28323      1728000    157.34026         4900          875 
  990000   0.97554176   -4.2739708      1728000    159.19737         4950          877 
 1000000    1.0024742   -4.3410432      1728000    161.09341         5000          879 
 1010000   0.98575587   -4.2335619      1728000    163.00545         5050          883 
 1020000   0.97005614   -4.4313169      1728000    164.84858         5100          887 
 1030000    0.9868103   -4.3705429      1728000     166.6717         5150          892 
 1040000    1.0047957   -4.3210768      1728000    168.50182         5200          893 
 1050000   0.94495094   -4.2841605      1728000    170.38988         5250          895 
 1060000   0.99747034    -4.441239      1728000    172.38684         5300          897 
 1070000    1.0228529    -4.394778      1728000    174.20998         5350          898 
 1080000   0.98931292   -4.3222539      1728000    176.10557         5400          901 
 1090000    1.0061368   -4.3509861      1728000    177.94569         5450          902 
 1100000   0.91307596    -4.358636      1728000    179.81675         5500          904 
 1110000    1.0171331    -4.359283      1728000    181.63489         5550          906 
 1120000    1.0396475   -4.5516021      1728000    183.50597         5600          908 
 1130000    1.0080274   -4.3341339      1728000    185.33311         5650          909 
 1140000   0.94118433   -4.3999596      1728000    187.18126         5700          910 
 1150000    0.9895787   -4.4197418      1728000    189.03035         5750          912 
 1160000    1.0329718   -4.3621159      1728000    190.89644         5800          915 
 1170000    1.0011232   -4.3129457      1728000     192.8015         5850          916 
 1180000    1.0081977   -4.4949611      1728000    194.64761         5900          918 
 1190000    0.9621035   -4.4882461      1728000    196.46973         5950          919 
 1200000    1.0053588   -4.4262382      1728000    198.39876         6000          919 
 1210000   0.96983179   -4.4717755      1728000    200.31779         6050          920 
 1220000    1.0266715   -4.3664601      1728000    202.22583         6100          921 
 1230000    1.0636964   -4.3988578      1728000    204.16386         6150          922 
 1240000    0.9953038   -4.4354407      1728000    206.20076         6200          925 
 1250000    1.0200043   -4.3687075      1728000     208.1268         6250          927 
 1260000    1.0180859   -4.4526672      1728000    209.95692         6300          930 
 1270000    1.0600964   -4.4270736      1728000    211.82599         6350          932 
 1280000   0.97729996   -4.2857045      1728000    213.68009         6400          932 
 1290000    1.0112022   -4.4778547      1728000    215.52523         6450          932 
 1300000   0.93758129   -4.3787249      1728000    217.51917         6500          934 
 1310000    1.0066103   -4.4233545      1728000     219.3623         6550          934 
 1320000    1.0278722   -4.3346322      1728000    221.27333         6600          935 
 1330000    1.0031966   -4.3638666      1728000    223.13242         6650          936 
 1340000    1.0050438   -4.4370241      1728000    224.99852         6700          938 
 1350000    1.0263179   -4.3641724      1728000    226.89358         6750          940 
 1360000    1.0020641   -4.2684045      1728000    228.73368         6800          941 
 1370000    1.0176935   -4.4129226      1728000    230.63473         6850          941 
 1380000    1.0023984    -4.466997      1728000    232.47087         6900          942 
 1390000    1.0066395    -4.344845      1728000    234.37192         6950          943 
 1400000    1.0193844   -4.3427141      1728000      236.234         7000          943 
 1410000    1.0423334   -4.4904546      1728000    238.22296         7050          944 
 1420000   0.98492812   -4.4360455      1728000    240.16197         7100          944 
 1430000   0.98398727   -4.4203422      1728000    242.02308         7150          945 
 1440000   0.98039974    -4.447219      1728000    243.98906         7200          945 
 1450000   0.99451883   -4.3545817      1728000    245.87613         7250          945 
 1460000   0.98939457    -4.511058      1728000     247.7592         7300          945 
 1470000    1.0171834   -4.4570408      1728000    249.65325         7350          946 
 1480000    1.0203212   -4.3571955      1728000    251.52334         7400          946 
 1490000   0.97892303   -4.4234933      1728000    253.37543         7450          948 
 1500000   0.95741805   -4.3977876      1728000    255.22054         7500          950 
 1510000    1.0621521   -4.3787619      1728000    257.09662         7550          951 
 1520000   0.96930274   -4.4461673      1728000    259.08659         7600          952 
 1530000    1.0632318   -4.3790942      1728000    260.98763         7650          952 
 1540000    1.0133328    -4.233015      1728000    262.86176         7700          953 
 1550000    1.0462174   -4.4756325      1728000    264.85771         7750          953 
 1560000    1.0605746   -4.4808562      1728000    266.81071         7800          954 
 1570000     1.025886   -4.3059693      1728000    268.64484         7850          955 
 1580000    1.0270569   -4.3771022      1728000    270.47997         7900          957 
 1590000   0.94177762   -4.3399451      1728000    272.31209         7950          961 
 1600000   0.98328104   -4.4121724      1728000    274.13225         8000          962 
 1610000    1.0711922   -4.4976948      1728000    276.04928         8050          965 
 1620000    1.0097863    -4.413058      1728000    277.92347         8100          968 
 1630000     1.028731   -4.3909607      1728000    279.78096         8150          968 
 1640000    1.0510255   -4.4692809      1728000    281.58636         8200          970 
 1650000    0.9686114   -4.4999408      1728000    283.45444         8250          973 
 1660000    1.0514253   -4.4107014      1728000    285.31963         8300          974 
 1670000   0.99198589   -4.4017459      1728000    287.19826         8350          975 
 1680000    1.0170183   -4.3915919      1728000    289.01738         8400          977 
 1690000    1.0196038   -4.3551258      1728000    290.87049         8450          978 
 1700000    1.0286563   -4.3394861      1728000    292.74457         8500          980 
 1710000     1.017442   -4.3163191      1728000    294.64162         8550          981 
 1720000    1.0418258    -4.449075      1728000    296.54367         8600          984 
 1730000    1.0059317   -4.4776561      1728000     298.4657         8650          984 
 1740000    1.0210559   -4.4320144      1728000    300.38774         8700          984 
 1750000    1.0329218   -4.4815319      1728000    302.26082         8750          986 
 1760000    1.0073844   -4.5749213      1728000    304.11692         8800          987 
 1770000     1.009205   -4.4582369      1728000    305.99099         8850          990 
 1780000    1.0340495   -4.4308249      1728000      307.928         8900          990 
 1790000   0.99706858   -4.5850304      1728000    309.84811         8950          992 
 1800000    1.0008973   -4.5306658      1728000    311.76014         9000          992 
 1810000     0.945618   -4.5709986      1728000    313.71413         9050          992 
 1820000   0.99497768   -4.5624551      1728000    315.57023         9100          992 
 1830000    1.0180597   -4.5884298      1728000    317.43136         9150          993 
 1840000    1.0484936   -4.6149511      1728000    319.33341         9200          993 
 1850000   0.97596243   -4.4742748      1728000    321.18755         9250          994 
 1860000    1.0472258   -4.4975863      1728000    323.04064         9300          995 
 1870000   0.98417872   -4.4789822      1728000    324.93469         9350          995 
 1880000   0.99439522   -4.4558839      1728000    326.83176         9400          997 
 1890000   0.90561881    -4.411782      1728000    328.74181         9450          997 
 1900000   0.99833541   -4.3805685      1728000     330.6029         9500         1000 
 1910000   0.98014832   -4.5037056      1728000    332.43102         9550         1002 
 1920000    1.0298953   -4.4385051      1728000    334.26941         9600         1003 
 1930000    1.0685846      -4.3019      1728000    336.18744         9650         1008 
 1940000   0.98202353   -4.5124744      1728000    338.40319         9700         1008 
 1950000   0.91886305   -4.5141079      1728000    340.27228         9750         1008 
 1960000    1.0652307   -4.6230983      1728000    342.20728         9800         1010 
 1970000     0.934474   -4.4156886      1728000    344.09196         9850         1012 
 1980000   0.99035935   -4.4923113      1728000    345.94406         9900         1013 
 1990000     0.999302   -4.4086582      1728000    347.85009         9950         1014 
 2000000   0.97965202   -4.4126712      1728000    349.85804        10000         1015 
 2010000   0.97797901   -4.5925253      1728000     351.7511        10050         1016 
 2020000   0.91885417   -4.4631636      1728000    353.62328        10100         1019 
 2030000    1.0573868   -4.4849633      1728000    355.52132        10150         1019 
 2040000   0.95848817   -4.6290045      1728000     357.4674        10200         1019 
 2050000    1.0034881    -4.428815      1728000    359.34349        10250         1019 
 2060000   0.99190891   -4.3365944      1728000    361.19859        10300         1019 
 2070000     1.022917   -4.5490244      1728000    363.11063        10350         1021 
 2080000   0.98729019   -4.5127299      1728000    364.93776        10400         1025 
 2090000    1.0343442   -4.4564586      1728000    366.81899        10450         1026 
 2100000   0.97019305   -4.3567628      1728000    368.78896        10500         1026 
 2110000    1.1232886   -4.4462985      1728000    370.72797        10550         1028 
 2120000   0.95601113   -4.4483768      1728000    372.63901        10600         1029 
 2130000    1.0132166   -4.5117873      1728000    374.68492        10650         1030 
 2140000    1.0140852   -4.6525745      1728000    376.73482        10700         1031 
 2150000   0.98940522   -4.4163667      1728000    378.63188        10750         1032 
 2160000   0.97594869   -4.4646905      1728000    380.55591        10800         1032 
 2170000   0.98194767   -4.4992649      1728000    382.46296        10850         1034 
 2180000    1.0094743   -4.4246178      1728000    384.32805        10900         1035 
 2190000    0.9868704   -4.6031768      1728000    386.20912        10950         1035 
 2200000      1.02863   -4.4781237      1728000    388.12015        11000         1037 
 2210000   0.96301467   -4.4712481      1728000    390.00323        11050         1039 
 2220000   0.93570603   -4.5608807      1728000    391.89628        11100         1040 
 2230000   0.97543639   -4.5681391      1728000    393.76936        11150         1041 
 2240000    1.0060731   -4.5079489      1728000    395.66342        11200         1041 
 2250000    1.0078063   -4.6148952      1728000    397.55148        11250         1041 
 2260000   0.99002713   -4.5193046      1728000    399.46552        11300         1043 
 2270000   0.97478055   -4.4882023      1728000    401.38356        11350         1044 
 2280000    1.0870628   -4.4925771      1728000    403.24665        11400         1045 
 2290000   0.95661005   -4.5332811      1728000    405.12173        11450         1045 
 2300000    1.0527472   -4.4843406      1728000    407.02378        11500         1045 
 2310000    1.0094285   -4.4837984      1728000    408.92982        11550         1046 
 2320000    1.0643146    -4.525419      1728000    410.81989        11600         1047 
 2330000    1.0045827   -4.4822499      1728000    412.69498        11650         1049 
 2340000    1.0242575   -4.3123573      1728000    414.60002        11700         1049 
 2350000    1.0074138   -4.3927195      1728000    416.48309        11750         1051 
 2360000    0.9941963    -4.460552      1728000    418.34219        11800         1051 
 2370000    1.0171148   -4.4590178      1728000    420.20527        11850         1052 
 2380000    1.0081139   -4.4401864      1728000    422.11531        11900         1054 
 2390000    1.0031708   -4.3721764      1728000    423.98042        11950         1056 
 2400000    1.0651769   -4.5592331      1728000    425.87945        12000         1056 
 2410000   0.93890941   -4.4255256      1728000     427.7855        12050         1057 
 2420000    1.0101351    -4.433097      1728000    429.64374        12100         1059 
 2430000   0.95844396   -4.3510562      1728000    431.50684        12150         1060 
 2440000    1.0082563   -4.4049893      1728000    433.36093        12200         1061 
 2450000   0.99580444   -4.4399888      1728000    435.24102        12250         1062 
 2460000   0.91895828   -4.4478716      1728000    437.10709        12300         1062 
 2470000    1.0840819   -4.3442227      1728000    438.99216        12350         1063 
 2480000   0.92655315   -4.5298875      1728000    440.87922        12400         1063 
 2490000    1.0048195   -4.5139968      1728000     442.7713        12450         1064 
 2500000    1.0710615   -4.5680367      1728000    444.64736        12500         1064 
 2510000   0.98580592   -4.3590512      1728000    446.53243        12550         1065 
 2520000    1.0287867   -4.6468696      1728000    448.41651        12600         1065 
 2530000   0.99896725   -4.5100937      1728000    450.28559        12650         1065 
 2540000    1.1143841   -4.4526778      1728000    452.16367        12700         1066 
 2550000   0.97833707   -4.4649115      1728000    454.03977        12750         1066 
 2560000   0.95859385   -4.4718569      1728000    455.90485        12800         1067 
 2570000    1.0418636   -4.4673342      1728000    457.78692        12850         1068 
 2580000    0.9878302   -4.3738058      1728000    459.66999        12900         1070 
 2590000   0.95327684   -4.4644096      1728000    461.55308        12950         1072 
 2600000    1.0796962    -4.474649      1728000    463.43613        13000         1074 
 2610000    1.0382138   -4.4606494      1728000     465.3292        13050         1074 
 2620000   0.94100184   -4.4102101      1728000     467.1813        13100         1074 
 2630000   0.96887755    -4.394042      1728000    469.05637        13150         1076 
 2640000   0.98303572   -4.5990225      1728000    470.92945        13200         1076 
 2650000   0.97004553   -4.3905539      1728000    472.79953        13250         1077 
 2660000   0.93667854   -4.5007456      1728000    474.68362        13300         1079 
 2670000    1.0100934   -4.4018472      1728000    476.56068        13350         1079 
 2680000    1.0275214   -4.3760846      1728000    478.41679        13400         1079 
 2690000   0.94965345   -4.4301629      1728000    480.29487        13450         1079 
 2700000    1.0019991   -4.5506895      1728000    482.21588        13500         1081 
 2710000   0.96665805   -4.4582048      1728000    484.05801        13550         1083 
 2720000    1.0162808   -4.4248344      1728000    485.91709        13600         1084 
 2730000    1.0034791   -4.4639341      1728000    487.76819        13650         1087 
 2740000   0.96164457   -4.5144682      1728000    489.62929        13700         1087 
 2750000    1.0350301   -4.4162073      1728000    491.50037        13750         1088 
 2760000    1.0256782    -4.507716      1728000    493.40144        13800         1091 
 2770000    1.0378858     -4.60652      1728000    495.33645        13850         1091 
 2780000    1.0668004   -4.3783791      1728000    497.22151        13900         1093 
 2790000    1.0051566   -4.4993852      1728000    499.07961        13950         1095 
 2800000    1.0078367    -4.501586      1728000    500.99464        14000         1096 
 2810000   0.94914601   -4.4322252      1728000    502.86174        14050         1098 
 2820000     1.011371   -4.4365581      1728000    505.09311        14100         1099 
 2830000    1.0249439   -4.5167115      1728000    506.98422        14150         1099 
 2840000    1.0036851   -4.5515632      1728000    508.88123        14200         1100 
 2850000   0.98219511   -4.6083847      1728000    510.78526        14250         1100 
 2860000    1.0274089   -4.4456314      1728000    512.69033        14300         1102 
 2870000   0.97482844   -4.4667378      1728000    514.56041        14350         1105 
 2880000    1.0119316   -4.3809974      1728000    516.47044        14400         1106 
 2890000    1.0148053   -4.5029525      1728000    518.36351        14450         1108 
 2900000   0.97265269   -4.6085421      1728000    520.30751        14500         1113 
 2910000    1.0377186   -4.4802483      1728000     522.2615        14550         1114 
 2920000     1.003142   -4.4882677      1728000    524.16456        14600         1115 
 2930000   0.89425385   -4.4282104      1728000    526.05462        14650         1117 
 2940000    0.9728026   -4.5468675      1728000     527.9377        14700         1117 
 2950000    1.0258885   -4.3985088      1728000    529.80677        14750         1118 
 2960000    1.0484006   -4.5119781      1728000    531.68287        14800         1120 
 2970000   0.99992098   -4.3886551      1728000    533.52298        14850         1121 
 2980000    1.0789848   -4.4638714      1728000    535.41103        14900         1124 
 2990000    1.0101234   -4.4566667      1728000    537.25915        14950         1124 
 3000000    1.0205299   -4.5518223      1728000     539.1502        15000         1127 
 3010000    1.0862972   -4.4846318      1728000    541.03627        15050         1128 
 3020000    1.0288359   -4.4759832      1728000    542.91335        15100         1129 
 3030000    1.0668047   -4.6202869      1728000    544.83738        15150         1129 
 3040000   0.94052182   -4.6408415      1728000    546.71245        15200         1129 
 3050000   0.92963874   -4.6270615      1728000    548.58654        15250         1130 
 3060000    1.0405968   -4.4518185      1728000    550.45562        15300         1133 
 3070000    1.0697242   -4.3424978      1728000    552.34068        15350         1133 
 3080000    1.0325012   -4.5714037      1728000    554.23374        15400         1135 
 3090000   0.98246489   -4.5319794      1728000    556.15379        15450         1137 
 3100000    1.0029759   -4.5616755      1728000    558.05782        15500         1138 
 3110000    1.0152641   -4.4479376      1728000    559.90994        15550         1140 
 3120000   0.91838016   -4.4874167      1728000    561.84495        15600         1142 
 3130000   0.96102321   -4.3808901      1728000    563.69106        15650         1143 
 3140000   0.99973569   -4.4558521      1728000    565.55131        15700         1143 
 3150000   0.97253522   -4.4522267      1728000    567.36452        15750         1143 
 3160000   0.94084257   -4.4959302      1728000    569.26906        15800         1144 
 3170000   0.94044452   -4.5680656      1728000    571.09049        15850         1144 
 3180000    1.0475721    -4.442751      1728000    572.90067        15900         1144 
 3190000    1.0051647   -4.3441717      1728000    574.75815        15950         1145 
 3200000   0.96951041   -4.4398515      1728000     576.5875        16000         1147 
 3210000    1.0186226   -4.4768637      1728000    578.45789        16050         1148 
 3220000    1.0266381   -4.6122049      1728000    580.31008        16100         1148 
 3230000   0.99219114   -4.5493436      1728000     582.1223        16150         1148 
 3240000    1.0103394   -4.5215504      1728000    583.95082        16200         1149 
 3250000   0.98975369   -4.5160969      1728000    585.79858        16250         1150 
 3260000   0.96421787    -4.598848      1728000     587.6091        16300         1151 
 3270000     1.020614    -4.584765      1728000    589.43527        16350         1152 
 3280000   0.99434864   -4.4424341      1728000    591.25131        16400         1154 
 3290000    1.0168813   -4.5924975      1728000     593.0796        16450         1154 
 3300000    1.0310709   -4.5147034      1728000    594.90512        16500         1154 
 3310000    1.0333338   -4.5430347      1728000    596.75924        16550         1154 
 3320000   0.97050375   -4.5984266      1728000    598.57102        16600         1154 
 3330000    1.0033847   -4.4946044      1728000    600.38314        16650         1154 
 3340000    1.0474466    -4.603822      1728000    602.24158        16700         1155 
 3350000   0.94208488   -4.5225986      1728000    604.08399        16750         1155 
 3360000    1.0377291   -4.5172157      1728000    605.91103        16800         1155 
 3370000     1.046911   -4.5166039      1728000    607.70541        16850         1156 
 3380000    1.0119403   -4.4375528      1728000    609.52505        16900         1156 
 3390000    1.0261243   -4.5653481      1728000    611.34207        16950         1156 
 3400000   0.96614579   -4.5095527      1728000    613.18375        17000         1157 
 3410000   0.93781919   -4.5534916      1728000    615.01933        17050         1157 
 3420000    1.0002509   -4.4899591      1728000     616.8281        17100         1157 
 3430000     0.969848   -4.5168249      1728000    618.61894        17150         1158 
 3440000   0.97348601   -4.5469041      1728000    620.43208        17200         1158 
 3450000   0.94898463   -4.4625775      1728000    622.25689        17250         1160 
 3460000    1.0849305   -4.5819459      1728000    624.05977        17300         1161 
 3470000    1.0182355   -4.4891863      1728000    625.88701        17350         1162 
 3480000   0.93156431   -4.4125443      1728000    627.68694        17400         1163 
 3490000    1.0788982   -4.5224146      1728000    629.49494        17450         1164 
 3500000   0.97141375   -4.5073012      1728000    631.33574        17500         1165 
 3510000    1.0443448    -4.512874      1728000    633.20417        17550         1165 
 3520000    1.0526233    -4.589265      1728000    635.02798        17600         1167 
 3530000    1.0005499   -4.6736823      1728000    636.85418        17650         1168 
 3540000   0.98645378   -4.6361435      1728000    638.68776        17700         1168 
 3550000   0.95724301   -4.5619087      1728000    640.50335        17750         1168 
 3560000   0.92575909   -4.5302167      1728000    642.35749        17800         1168 
 3570000   0.98605467   -4.6337351      1728000    644.20511        17850         1170 
 3580000   0.96707237   -4.3408635      1728000    646.02231        17900         1171 
 3590000   0.95566169   -4.6650964      1728000    647.83606        17950         1171 
 3600000   0.97029128   -4.4781338      1728000    649.69178        18000         1171 
 3610000    0.9528909   -4.4803413      1728000    651.52738        18050         1171 
 3620000   0.97099796   -4.5847671      1728000    653.32375        18100         1171 
 3630000    1.0020788    -4.491181      1728000    655.13015        18150         1171 
 3640000    0.9908376   -4.5487417      1728000    657.21547        18200         1171 
 3650000    1.0530244   -4.4617912      1728000    659.06198        18250         1171 
 3660000    1.0088883   -4.4888345      1728000    660.94397        18300         1172 
 3670000    1.0418257   -4.6523574      1728000    662.74911        18350         1172 
 3680000    1.0430695   -4.4631634      1728000    664.60693        18400         1172 
 3690000     1.015746   -4.4737008      1728000    666.47801        18450         1172 
 3700000   0.96896052   -4.4777325      1728000    668.32431        18500         1173 
 3710000    1.0442597   -4.5751039      1728000    670.19602        18550         1174 
 3720000   0.97141904   -4.4438459      1728000    672.05932        18600         1175 
 3730000     0.974731   -4.7077977      1728000     673.9204        18650         1176 
 3740000   0.99745281   -4.6641545      1728000    675.74593        18700         1177 
 3750000    1.0436868   -4.4747714      1728000    677.59802        18750         1181 
 3760000    1.0369171    -4.461269      1728000    679.40196        18800         1181 
 3770000    1.0501829   -4.5642574      1728000    681.22824        18850         1183 
 3780000   0.97250024   -4.4544164      1728000    683.08097        18900         1184 
 3790000   0.99415198   -4.4657653      1728000     684.8888        18950         1184 
 3800000   0.95652967   -4.4354277      1728000     686.7097        19000         1186 
 3810000   0.99298821   -4.5887594      1728000    688.51477        19050         1187 
 3820000   0.99302561   -4.5565495      1728000    690.35891        19100         1187 
 3830000    1.1005311   -4.5150186      1728000    692.17207        19150         1187 
 3840000   0.97634441   -4.6104127      1728000    693.99576        19200         1187 
 3850000   0.95760368   -4.5828128      1728000    695.82573        19250         1187 
 3860000    1.0331741   -4.3881234      1728000    697.63561        19300         1188 
 3870000    1.0352136   -4.4743864      1728000      699.467        19350         1189 
 3880000   0.94332991   -4.5623835      1728000    701.32181        19400         1191 
 3890000   0.95411787   -4.5174453      1728000    703.16075        19450         1193 
 3900000    1.0007088   -4.4933109      1728000    705.01285        19500         1194 
 3910000    1.0473552   -4.4441973      1728000    706.84289        19550         1197 
 3920000   0.99481757   -4.5901972      1728000    708.70722        19600         1198 
 3930000    1.0684774   -4.6435416      1728000    710.55667        19650         1199 
 3940000    1.0241523   -4.6713595      1728000    712.39779        19700         1201 
 3950000   0.95170141   -4.5782792      1728000    714.25629        19750         1201 
 3960000   0.96847988    -4.566067      1728000    716.06603        19800         1201 
 3970000    1.0634019   -4.5258488      1728000    717.88831        19850         1202 
 3980000    1.0745526   -4.4813774      1728000    719.70475        19900         1203 
 3990000    1.0440261   -4.5326627      1728000    721.52459        19950         1203 
 4000000    0.9894423   -4.6334897      1728000    723.38201        20000         1203 
 4010000    1.0101033   -4.4416092      1728000    725.22191        20050         1204 
 4020000    1.0443547   -4.5419103      1728000    727.06287        20100         1205 
 4030000    1.0345287   -4.5769526      1728000    728.91766        20150         1206 
 4040000   0.97413874   -4.7002731      1728000    730.75273        20200         1206 
 4050000   0.97385802   -4.5977293      1728000     732.6098        20250         1207 
 4060000   0.96615737    -4.670914      1728000    734.41888        20300         1208 
 4070000    1.0591209   -4.5468276      1728000    736.22674        20350         1208 
 4080000   0.98990366   -4.6700325      1728000    738.09243        20400         1209 
 4090000    1.0452503   -4.4936918      1728000    739.91592        20450         1210 
 4100000    1.0203056   -4.6151976      1728000    741.77287        20500         1210 
 4110000    0.9994822   -4.3949567      1728000    743.62046        20550         1210 
 4120000    1.0741967    -4.531653      1728000    745.44106        20600         1210 
 4130000    1.0004655   -4.6394019      1728000     747.3783        20650         1210 
 4140000     1.065177   -4.5678034      1728000    749.50911        20700         1210 
 4150000   0.95100682   -4.5080473      1728000    751.41959        20750         1210 
 4160000    1.0021086   -4.6562214      1728000    753.27397        20800         1210 
 4170000    1.0184614   -4.5668637      1728000    755.11945        20850         1211 
 4180000   0.96926157   -4.5882235      1728000    756.92284        20900         1211 
 4190000    1.0340408   -4.5561248      1728000    758.72694        20950         1213 
 4200000   0.96128784   -4.5207821      1728000    760.55707        21000         1214 
 4210000    1.0246507   -4.4677815      1728000    762.38059        21050         1215 
 4220000    1.0321742   -4.5780277      1728000    764.19275        21100         1216 
 4230000    1.0074616   -4.4332045      1728000    766.01661        21150         1216 
 4240000   0.98848829   -4.6154059      1728000    767.84965        21200         1217 
 4250000    1.0654285   -4.5829406      1728000     769.7142        21250         1217 
 4260000   0.94302382    -4.423181      1728000    771.53965        21300         1221 
 4270000      1.00716   -4.4207202      1728000    773.38975        21350         1221 
 4280000    1.0236285   -4.5494407      1728000    775.22895        21400         1222 
 4290000    1.0107769   -4.5796962      1728000     777.0655        21450         1223 
 4300000   0.95508828   -4.3988665      1728000     778.8908        21500         1224 
 4310000    1.0221773   -4.5888683      1728000    780.73052        21550         1226 
 4320000    1.0060616   -4.5069322      1728000    782.59237        21600         1227 
 4330000    1.0446716   -4.5977432      1728000     784.4406        21650         1227 
 4340000   0.96663221   -4.6456896      1728000    786.27799        21700         1227 
 4350000     1.078052   -4.5989053      1728000    788.11631        21750         1228 
 4360000   0.98778095   -4.5748783      1728000    789.93893        21800         1231 
 4370000    1.0317647    -4.576856      1728000    791.75158        21850         1231 
 4380000    0.9760708   -4.5626608      1728000    793.57708        21900         1232 
 4390000   0.96385026   -4.6269176      1728000    795.39767        21950         1232 
 4400000    1.0480036   -4.5944606      1728000    797.27395        22000         1232 
 4410000   0.97465639   -4.4701208      1728000     799.1283        22050         1232 
 4420000   0.95062536   -4.4889287      1728000     800.9825        22100         1232 
 4430000    1.0314505   -4.4762735      1728000    802.81267        22150         1232 
 4440000    1.0109278   -4.5418927      1728000    804.67078        22200         1236 
 4450000    1.0163679    -4.490433      1728000    806.49593        22250         1236 
 4460000   0.97718427   -4.5720445      1728000    808.31746        22300         1237 
 4470000    0.9519935   -4.5274104      1728000    810.17471        22350         1240 
 4480000   0.96135008   -4.5569776      1728000    811.99952        22400         1241 
 4490000   0.95186297   -4.4174386      1728000    813.81556        22450         1241 
 4500000   0.99624624   -4.5163975      1728000    815.69076        22500         1242 
 4510000    1.0128349   -4.5067912      1728000     817.5119        22550         1243 
 4520000    1.0645266   -4.5198856      1728000    819.35154        22600         1243 
 4530000   0.98434103    -4.485239      1728000    821.22662        22650         1244 
 4540000   0.94913736   -4.4860108      1728000    823.21659        22700         1244 
 4550000   0.93538029   -4.5655302      1728000    825.02177        22750         1247 
 4560000    1.0454916   -4.6188053      1728000    826.87393        22800         1248 
 4570000    1.0009884   -4.5838002      1728000    828.69081        22850         1249 
 4580000    1.0291711   -4.4572325      1728000    830.54461        22900         1249 
 4590000    1.0170033   -4.5715966      1728000    832.47318        22950         1249 
 4600000    1.0100707   -4.5411981      1728000    834.30321        23000         1249 
 4610000   0.98645564   -4.6018692      1728000    836.13868        23050         1250 
 4620000    1.0827985   -4.6030338      1728000    837.95664        23100         1251 
 4630000   0.97305684   -4.6079449      1728000    839.93121        23150         1251 
 4640000      1.00533   -4.5557811      1728000    841.74263        23200         1252 
 4650000    0.9858329   -4.5030566      1728000    843.56593        23250         1252 
 4660000    1.0252549    -4.578306      1728000    845.38068        23300         1252 
 4670000   0.95570804   -4.5333574      1728000    847.22987        23350         1253 
 4680000    1.0397114   -4.5785982      1728000    849.12796        23400         1254 
 4690000    1.0059469   -4.5957971      1728000    850.95372        23450         1256 
 4700000     1.038266   -4.6015516      1728000    852.79752        23500         1256 
 4710000   0.97822425   -4.5365993      1728000    854.62844        23550         1256 
 4720000    1.0234333   -4.6776952      1728000    856.46852        23600         1257 
 4730000   0.96464272   -4.7489595      1728000    858.30354        23650         1257 
 4740000   0.94936181   -4.5165971      1728000     860.1458        23700         1258 
 4750000    1.0430701    -4.582273      1728000    861.96077        23750         1258 
 4760000    1.0462634   -4.5789535      1728000    863.79172        23800         1258 
 4770000    1.0034007   -4.6398178      1728000     865.6186        23850         1258 
 4780000    1.0763492   -4.5372495      1728000    867.45063        23900         1258 
 4790000   0.93307701   -4.4657606      1728000    869.27383        23950         1259 
 4800000    1.0149909   -4.4812188      1728000    871.12167        24000         1259 
 4810000   0.98765708   -4.5338914      1728000    872.98732        24050         1259 
 4820000    1.0512282   -4.5652841      1728000    874.83568        24100         1259 
 4830000    0.9956966    -4.536888      1728000    876.75957        24150         1259 
 4840000   0.95210213   -4.6248704      1728000    878.58382        24200         1259 
 4850000    1.0709629   -4.6257684      1728000    880.39947        24250         1260 
 4860000    1.0163454   -4.6048479      1728000    882.24563        24300         1260 
 4870000    1.0138171   -4.5021662      1728000    884.07313        24350         1261 
 4880000   0.95986842   -4.4472511      1728000    885.90714        24400         1261 
 4890000    1.0220081   -4.5260864      1728000    887.75176        24450         1261 
 4900000   0.96474869   -4.5455472      1728000     889.5964        24500         1261 
 4910000   0.95042583   -4.4262965      1728000     891.4203        24550         1262 
 4920000    1.0131094   -4.6514525      1728000    893.30144        24600         1262 
 4930000    1.0304862   -4.5073782      1728000    895.13912        24650         1262 
 4940000   0.98419885   -4.5781421      1728000    896.96691        24700         1263 
 4950000   0.98294042   -4.4985445      1728000    898.78928        24750         1263 
 4960000    1.0118169   -4.5766785      1728000    900.63371        24800         1264 
 4970000   0.97599202    -4.485454      1728000    902.47155        24850         1265 
 4980000   0.95505404   -4.5524276      1728000    904.33762        24900         1266 
 4990000   0.98908926   -4.6169069      1728000    906.20582        24950         1266 
 5000000   0.97031633   -4.5982179      1728000    908.03341        25000         1268 
 5010000    1.0454261   -4.5596177      1728000    909.85337        25050         1269 
 5020000   0.98308781   -4.6004174      1728000    911.70368        25100         1269 
 5030000   0.95481033   -4.4159473      1728000    913.52156        25150         1270 
 5040000    1.0204987   -4.4056177      1728000    915.33871        25200         1271 
 5050000    1.0158559   -4.5225817      1728000    917.17945        25250         1271 
 5060000   0.96917789   -4.4762903      1728000    918.98044        25300         1272 
 5070000   0.98555836   -4.5437635      1728000    920.81467        25350         1274 
 5080000    1.0032269   -4.5057016      1728000    922.64954        25400         1275 
 5090000   0.97106106   -4.7231254      1728000    924.49858        25450         1275 
 5100000    1.0207844   -4.4024942      1728000    926.32162        25500         1276 
 5110000   0.97428909   -4.6111507      1728000    928.12861        25550         1276 
 5120000    1.0006475   -4.6005997      1728000    929.99453        25600         1277 
 5130000   0.95855117   -4.5761918      1728000    931.82153        25650         1278 
 5140000   0.95248203    -4.566817      1728000    933.62961        25700         1278 
 5150000   0.96512926   -4.6407371      1728000    935.48172        25750         1278 
 5160000    1.0215655   -4.4327799      1728000     937.2935        25800         1278 
 5170000    1.0282706   -4.4569419      1728000    939.13844        25850         1279 
 5180000    1.0339906   -4.6687694      1728000    940.96672        25900         1280 
 5190000    1.0269872   -4.6646011      1728000    942.78277        25950         1280 
 5200000    1.0210202   -4.6840105      1728000    944.73856        26000         1280 
 5210000   0.98262233    -4.523398      1728000    946.59049        26050         1281 
 5220000   0.96655333   -4.5636493      1728000    948.42347        26100         1282 
 5230000    1.0257957   -4.4769465      1728000    950.25526        26150         1282 
 5240000   0.92188731   -4.5205558      1728000    952.08645        26200         1283 
 5250000    1.0313547   -4.4956797      1728000    953.90962        26250         1283 
 5260000    1.0830955   -4.5914963      1728000    955.74778        26300         1284 
 5270000    0.9561803   -4.6809551      1728000    957.55598        26350         1284 
 5280000   0.97534286   -4.5839171      1728000    959.40237        26400         1284 
 5290000   0.93401782   -4.6259257      1728000    961.24559        26450         1284 
 5300000   0.99651157   -4.6000579      1728000    963.08956        26500         1284 
 5310000   0.97168687   -4.4955543      1728000    964.95961        26550         1284 
 5320000    1.0296469   -4.5490995      1728000    966.79347        26600         1285 
 5330000    1.0088933   -4.6378181      1728000    968.64855        26650         1285 
 5340000   0.95876535   -4.5404493      1728000     970.4795        26700         1286 
 5350000   0.94964704   -4.6173842      1728000    972.35201        26750         1288 
 5360000   0.97372309   -4.5442398      1728000    974.20471        26800         1291 
 5370000   0.99840144   -4.6781793      1728000    976.03272        26850         1291 
 5380000    1.0655554   -4.5523248      1728000    977.88357        26900         1291 
 5390000   0.96817958   -4.5045166      1728000     979.6996        26950         1291 
 5400000    1.0086001   -4.6088576      1728000    981.57919        27000         1291 
 5410000    1.0028365   -4.5648253      1728000    983.41169        27050         1293 
 5420000    1.0929773   -4.5210258      1728000     985.2536        27100         1296 
 5430000   0.97859901   -4.5661795      1728000    987.05783        27150         1296 
 5440000   0.93493407   -4.6035885      1728000    988.86848        27200         1298 
 5450000   0.98099602   -4.5643059      1728000    990.69945        27250         1298 
 5460000    1.0136398   -4.4630991      1728000    992.51437        27300         1298 
 5470000    1.0570622   -4.4208475      1728000    994.35032        27350         1298 
 5480000    1.0088707   -4.5781129      1728000    996.18462        27400         1298 
 5490000    1.0745858   -4.6305497      1728000    998.00544        27450         1299 
 5500000    1.0267891   -4.5112197      1728000    999.85234        27500         1299 
 5510000    1.0188157   -4.5637213      1728000    1001.6653        27550         1300 
 5520000    1.0298655   -4.4221684      1728000    1003.4936        27600         1301 
 5530000    1.0055126   -4.5271048      1728000    1005.3056        27650         1302 
 5540000    1.0104906   -4.5331593      1728000    1007.1375        27700         1302 
 5550000   0.98722093   -4.5860719      1728000    1008.9674        27750         1302 
 5560000     1.038961   -4.5614478      1728000    1010.8152        27800         1302 
 5570000   0.94606194   -4.5608409      1728000    1012.6207        27850         1305 
 5580000    1.0274495   -4.6466506      1728000    1014.4554        27900         1306 
 5590000   0.98170839    -4.551466      1728000    1016.2902        27950         1310 
 5600000    0.9769087   -4.5033607      1728000    1018.1336        28000         1310 
 5610000   0.99435698   -4.6208119      1728000     1019.966        28050         1312 
 5620000    0.9665226   -4.4604476      1728000    1021.8097        28100         1313 
 5630000    0.9898175   -4.5184681      1728000    1023.6644        28150         1314 
 5640000    1.0657361   -4.5575517      1728000    1025.4646        28200         1315 
 5650000   0.94743354   -4.3569763      1728000    1027.2925        28250         1317 
 5660000    1.0427903   -4.4875839      1728000    1029.1394        28300         1317 
 5670000    1.0222177   -4.5915429      1728000    1030.9556        28350         1317 
 5680000   0.94238855   -4.4400874      1728000    1032.8162        28400         1317 
 5690000    1.0080907   -4.6431296      1728000    1034.6506        28450         1320 
 5700000   0.98119171   -4.6302249      1728000    1036.5355        28500         1320 
 5710000   0.99510135   -4.5016502      1728000      1038.37        28550         1321 
 5720000    1.0066304   -4.5170388      1728000    1040.1987        28600         1322 
 5730000   0.98228606   -4.5399642      1728000    1042.0447        28650         1322 
 5740000   0.97339744   -4.4551484      1728000    1043.8815        28700         1322 
 5750000   0.97386615   -4.6158372      1728000    1045.7015        28750         1323 
 5760000   0.98731449   -4.6609997      1728000    1047.5302        28800         1325 
 5770000    1.0757061   -4.5247204      1728000    1049.3632        28850         1325 
 5780000    1.0737859   -4.5107184      1728000    1051.5056        28900         1326 
 5790000   0.94224483   -4.5649852      1728000    1053.3614        28950         1328 
 5800000       1.0441   -4.5173815      1728000    1055.2014        29000         1328 
 5810000     1.007026   -4.6110541      1728000    1057.0284        29050         1328 
 5820000    1.0219606   -4.5813344      1728000    1058.8663        29100         1331 
 5830000    1.0199334   -4.6190557      1728000    1060.7223        29150         1332 
 5840000    1.0332734    -4.485461      1728000    1062.5894        29200         1335 
 5850000   0.96681215    -4.577701      1728000    1064.4123        29250         1335 
 5860000    1.0495794   -4.4486989      1728000     1066.257        29300         1335 
 5870000    1.0352648   -4.5196893      1728000    1068.0765        29350         1335 
 5880000    1.0091412   -4.3502313      1728000    1069.8984        29400         1336 
 5890000   0.97261897   -4.4533526      1728000    1071.7023        29450         1339 
 5900000   0.94523228    -4.450798      1728000    1073.5388        29500         1339 
 5910000   0.98125493   -4.5507638      1728000     1075.362        29550         1340 
 5920000   0.96581204   -4.3552651      1728000    1077.2156        29600         1340 
 5930000    1.0610438   -4.6382825      1728000    1079.0294        29650         1340 
 5940000    1.0211368   -4.5370536      1728000    1080.8712        29700         1340 
 5950000    1.0265501   -4.5041801      1728000    1082.7011        29750         1341 
 5960000   0.97470018   -4.5240881      1728000    1084.5214        29800         1341 
 5970000   0.92859581   -4.6188806      1728000    1086.3553        29850         1341 
 5980000    1.0546889   -4.6217484      1728000    1088.1906        29900         1341 
 5990000     1.017564   -4.5136257      1728000    1090.0364        29950         1342 
 6000000   0.96604883   -4.5015099      1728000    1091.8752        30000         1345 
 6010000   0.97794869   -4.4996347      1728000    1093.6996        30050         1345 
 6020000    1.0363546   -4.5155724      1728000    1095.5015        30100         1346 
 6030000    1.0116295   -4.5701821      1728000    1097.3541        30150         1348 
 6040000    1.0279436   -4.5322357      1728000    1099.1662        30200         1348 
 6050000    1.0393324   -4.4935604      1728000    1100.9733        30250         1348 
 6060000    1.0016475   -4.6277796      1728000    1102.8053        30300         1349 
 6070000    1.0145926    -4.394993      1728000    1104.6031        30350         1349 
 6080000   0.95925613    -4.583025      1728000    1106.4234        30400         1350 
 6090000    1.0289866    -4.503564      1728000    1108.2501        30450         1352 
 6100000    1.0243652   -4.5446085      1728000    1110.0944        30500         1353 
 6110000   0.94860063   -4.4467968      1728000    1111.9044        30550         1354 
 6120000   0.96326868   -4.5723955      1728000    1113.7474        30600         1354 
 6130000   0.96485298   -4.5748482      1728000    1115.5672        30650         1355 
 6140000    1.0081741    -4.635721      1728000    1117.4019        30700         1355 
 6150000    1.0107264   -4.5475187      1728000    1119.2314        30750         1356 
 6160000   0.99111799   -4.5952221      1728000    1121.0546        30800         1356 
 6170000    1.0127319   -4.5412269      1728000    1122.9094        30850         1357 
 6180000    1.0584403   -4.5569946      1728000    1124.7233        30900         1358 
 6190000    0.9537845   -4.5533285      1728000    1126.5652        30950         1359 
 6200000   0.95638416    -4.632508      1728000    1128.3943        31000         1361 
 6210000   0.92179317   -4.4129934      1728000    1130.2214        31050         1361 
 6220000   0.99910334   -4.5515241      1728000    1132.0391        31100         1362 
 6230000    1.0063162   -4.5163121      1728000    1133.9003        31150         1362 
 6240000    1.0211912   -4.5572097      1728000    1135.7274        31200         1364 
 6250000    1.0484533   -4.5664432      1728000    1137.5623        31250         1366 
 6260000     1.032585   -4.6174149      1728000    1139.3903        31300         1366 
 6270000    1.0502362   -4.6069558      1728000    1141.2382        31350         1366 
 6280000   0.96225791   -4.5334101      1728000    1143.0794        31400         1366 
 6290000   0.98755256   -4.5018703      1728000    1144.9404        31450         1367 
 6300000    1.0409226   -4.6425643      1728000    1146.7685        31500         1368 
 6310000    1.0630827   -4.4564397      1728000    1148.6052        31550         1369 
 6320000    1.0285264   -4.5119374      1728000    1150.4083        31600         1369 
 6330000    1.0094569   -4.4819536      1728000    1152.2204        31650         1369 
 6340000    1.0220902   -4.4779582      1728000    1154.0344        31700         1369 
 6350000    1.0042958   -4.5838781      1728000    1155.8584        31750         1370 
 6360000   0.94715834   -4.5050926      1728000    1157.6881        31800         1373 
 6370000   0.99979868   -4.5470288      1728000    1159.5433        31850         1373 
 6380000   0.98349262   -4.4527756      1728000    1161.4185        31900         1373 
 6390000   0.97182372   -4.6938233      1728000      1163.23        31950         1374 
 6400000   0.98156801   -4.5814547      1728000    1165.1041        32000         1374 
 6410000    1.0566735   -4.5747225      1728000    1166.9426        32050         1375 
 6420000    1.0113248   -4.5524504      1728000     1168.794        32100         1375 
 6430000    1.0500854    -4.454829      1728000    1170.6281        32150         1375 
 6440000   0.98765749    -4.443164      1728000    1172.4422        32200         1375 
 6450000    1.0251785   -4.6362244      1728000    1174.2751        32250         1377 
 6460000    1.0646097   -4.6835888      1728000    1176.0922        32300         1379 
 6470000   0.95708616   -4.5761375      1728000    1178.2471        32350         1382 
 6480000   0.97145546   -4.6698474      1728000     1180.374        32400         1382 
 6490000    1.0112141   -4.5284145      1728000    1182.2055        32450         1383 
 6500000   0.97022515   -4.4527553      1728000    1184.0572        32500         1384 
 6510000    1.0001316    -4.509958      1728000    1185.8921        32550         1384 
 6520000   0.99678403   -4.5228046      1728000    1187.7051        32600         1385 
 6530000   0.96716481   -4.4229977      1728000    1189.5471        32650         1385 
 6540000   0.97340271   -4.4715982      1728000     1191.382        32700         1386 
 6550000    1.0058256   -4.6028638      1728000    1193.2202        32750         1388 
 6560000    1.0409919   -4.6305538      1728000    1195.0601        32800         1389 
 6570000    1.0716442   -4.5383061      1728000    1196.8862        32850         1389 
 6580000   0.96300543   -4.6971943      1728000    1198.7243        32900         1389 
 6590000    1.0097411   -4.5044195      1728000    1200.5442        32950         1391 
 6600000   0.97195747   -4.4407397      1728000    1202.3622        33000         1394 
 6610000   0.99076312   -4.5500955      1728000    1204.1841        33050         1396 
 6620000   0.99700897   -4.5584501      1728000     1206.013        33100         1396 
 6630000    1.0347107   -4.5152332      1728000    1207.8782        33150         1399 
 6640000     1.008413   -4.5477273      1728000    1209.7016        33200         1399 
 6650000    1.0048906   -4.4340626      1728000    1211.5371        33250         1399 
 6660000   0.96361764   -4.5862869      1728000    1213.3597        33300         1401 
 6670000   0.97827925   -4.4388802      1728000    1215.1761        33350         1402 
 6680000    1.0657372   -4.5064243      1728000    1217.0171        33400         1403 
 6690000   0.95137777   -4.6612243      1728000    1218.8582        33450         1405 
 6700000     1.019695   -4.4856073      1728000    1220.6921        33500         1406 
 6710000   0.97253414     -4.56153      1728000    1222.5044        33550         1406 
 6720000    1.0436325   -4.5375596      1728000    1224.3783        33600         1406 
 6730000   0.96817431   -4.6201274      1728000    1226.2442        33650         1407 
 6740000    1.0568911   -4.6427834      1728000    1228.0912        33700         1407 
 6750000   0.96161688   -4.6084719      1728000    1229.9251        33750         1407 
 6760000   0.99455866   -4.4949417      1728000    1231.7592        33800         1407 
 6770000    1.0356064   -4.3839898      1728000    1233.6043        33850         1407 
 6780000   0.99374041   -4.4290385      1728000    1235.4343        33900         1408 
 6790000   0.98338173   -4.5217869      1728000    1237.2451        33950         1409 
 6800000   0.97926721    -4.527317      1728000    1239.0941        34000         1410 
 6810000    1.0132736   -4.4839815      1728000    1240.8983        34050         1410 
 6820000   0.98642646   -4.5167588      1728000    1242.7039        34100         1410 
 6830000    0.9427092   -4.6107285      1728000    1244.5412        34150         1410 
 6840000    0.9653574   -4.6510267      1728000    1246.3603        34200         1412 
 6850000   0.94042473   -4.5076964      1728000     1248.192        34250         1413 
 6860000   0.94006391    -4.520926      1728000    1250.0281        34300         1415 
 6870000    0.9333979   -4.5480206      1728000    1251.8741        34350         1416 
 6880000    1.0035019   -4.5880206      1728000    1253.6871        34400         1418 
 6890000    1.0053803    -4.507698      1728000    1255.5432        34450         1419 
 6900000   0.94978816   -4.6710273      1728000    1257.3801        34500         1419 
 6910000    1.0497868   -4.5154437      1728000    1259.2701        34550         1420 
 6920000    1.1214378   -4.5019089      1728000    1261.0969        34600         1420 
 6930000   0.99086637   -4.5115429      1728000     1262.944        34650         1422 
 6940000   0.95955886   -4.4939646      1728000    1264.8113        34700         1422 
 6950000   0.96221164   -4.5135098      1728000    1266.6381        34750         1422 
 6960000   0.99477857   -4.5044486      1728000     1268.466        34800         1424 
 6970000   0.96685678   -4.5162978      1728000     1270.309        34850         1426 
 6980000    1.0343641   -4.5318712      1728000    1272.1756        34900         1427 
 6990000   0.98037324   -4.5701952      1728000    1274.0372        34950         1427 
 7000000   0.96805344   -4.6088674      1728000    1275.9091        35000         1427 
 7010000   0.95788045   -4.5974424      1728000    1277.7118        35050         1427 
 7020000   0.98406705   -4.5062075      1728000    1279.5411        35100         1429 
 7030000    1.1099975   -4.5107387      1728000    1281.3581        35150         1430 
 7040000   0.98818853   -4.6351489      1728000     1283.209        35200         1430 
 7050000   0.97876557   -4.7289446      1728000    1285.3665        35250         1431 
 7060000    1.0427964   -4.5994558      1728000    1287.2069        35300         1431 
 7070000   0.97384407   -4.5191644      1728000    1289.0481        35350         1431 
 7080000    1.0010001   -4.6111459      1728000    1290.8982        35400         1432 
 7090000   0.97587755   -4.6469481      1728000    1292.7002        35450         1432 
 7100000     0.975262   -4.5760354      1728000    1294.5741        35500         1432 
 7110000    1.0274209   -4.5672012      1728000     1296.417        35550         1433 
 7120000   0.96643214   -4.5289015      1728000    1298.2294        35600         1434 
 7130000   0.94992114   -4.5464048      1728000    1300.0602        35650         1435 
 7140000    0.9529707    -4.406025      1728000     1301.896        35700         1435 
 7150000   0.99631594   -4.6097202      1728000    1303.7133        35750         1437 
 7160000   0.93037656   -4.6097971      1728000     1305.563        35800         1439 
 7170000   0.98934169   -4.5320766      1728000       1307.4        35850         1440 
 7180000     0.948027   -4.5620484      1728000     1309.243        35900         1441 
 7190000    1.0287349   -4.6016389      1728000     1311.069        35950         1445 
 7200000   0.99974661   -4.5945082      1728000     1312.897        36000         1446 
 7210000   0.98999524   -4.4475947      1728000    1314.7242        36050         1447 
 7220000   0.96782164   -4.5447894      1728000    1316.5402        36100         1448 
 7230000   0.98936874   -4.6363096      1728000    1318.3651        36150         1449 
 7240000    1.0172947   -4.6463359      1728000     1320.174        36200         1449 
 7250000   0.93628759   -4.4912537      1728000    1322.0248        36250         1449 
 7260000    1.0148775   -4.5868007      1728000    1323.8929        36300         1449 
 7270000   0.94784337   -4.4265845      1728000    1325.7081        36350         1452 
 7280000    0.9704661   -4.5126029      1728000    1327.5011        36400         1452 
 7290000   0.98565961   -4.5115731      1728000    1329.3568        36450         1455 
 7300000    1.0789964   -4.5725822      1728000     1331.245        36500         1455 
 7310000   0.97809131    -4.488995      1728000    1333.0781        36550         1455 
 7320000   0.96211007   -4.4993225      1728000    1334.9047        36600         1458 
 7330000   0.94890462   -4.5260097      1728000     1336.752        36650         1458 
 7340000     1.114885   -4.3922552      1728000    1338.5733        36700         1459 
 7350000     1.055322   -4.5408129      1728000    1340.4015        36750         1461 
 7360000    1.0625804   -4.5279314      1728000    1342.2191        36800         1462 
 7370000   0.97871303   -4.5327308      1728000    1344.0412        36850         1465 
 7380000    1.0383421   -4.5637315      1728000    1345.8771        36900         1467 
 7390000    1.0318263   -4.5295738      1728000    1347.7308        36950         1468 
 7400000    1.0165967   -4.5126517      1728000    1349.5699        37000         1468 
 7410000   0.96742347   -4.5446208      1728000    1351.4117        37050         1469 
 7420000    1.0409558    -4.553879      1728000    1353.2261        37100         1469 
 7430000    1.0520661   -4.5781239      1728000     1355.059        37150         1470 
 7440000    1.0306337   -4.4835365      1728000     1356.876        37200         1470 
 7450000    1.0400791   -4.5359056      1728000    1358.7371        37250         1470 
 7460000    1.0543341   -4.5886033      1728000    1360.5521        37300         1473 
 7470000    1.0495066   -4.4591857      1728000    1362.3935        37350         1474 
 7480000    1.0103359   -4.5727855      1728000    1364.2017        37400         1475 
 7490000    1.0069377   -4.5836629      1728000    1366.0299        37450         1476 
 7500000   0.98342371   -4.4582292      1728000    1367.8669        37500         1476 
 7510000   0.97809711   -4.6067061      1728000     1369.709        37550         1477 
 7520000     1.009553   -4.6552956      1728000    1371.5488        37600         1479 
 7530000    1.0075297   -4.4440729      1728000    1373.3782        37650         1479 
 7540000    1.0772123   -4.5540725      1728000    1375.2211        37700         1481 
 7550000    1.0128866   -4.5241732      1728000    1377.0541        37750         1482 
 7560000     1.015347   -4.5322434      1728000    1378.8789        37800         1482 
 7570000   0.96667397   -4.6202777      1728000    1380.7178        37850         1482 
 7580000    1.0240931   -4.6330108      1728000    1382.5469        37900         1482 
 7590000   0.97159174   -4.4237193      1728000     1384.358        37950         1482 
 7600000   0.94719689   -4.5272145      1728000    1386.2006        38000         1482 
 7610000    1.0080725   -4.5353647      1728000    1388.0801        38050         1482 
 7620000    0.9752285   -4.5289449      1728000    1390.2342        38100         1482 
 7630000     1.001272   -4.5390786      1728000    1392.0468        38150         1483 
 7640000   0.96242478   -4.5554676      1728000    1393.8727        38200         1483 
 7650000   0.99453209    -4.524093      1728000    1395.6945        38250         1485 
 7660000    1.0078037   -4.5149563      1728000    1397.5109        38300         1486 
 7670000    1.0819036   -4.6201213      1728000    1399.3428        38350         1487 
 7680000    1.0574908   -4.6317079      1728000    1401.2078        38400         1488 
 7690000   0.99582381   -4.5914745      1728000    1403.0548        38450         1489 
 7700000   0.96308157   -4.4931404      1728000    1404.8668        38500         1489 
 7710000    1.0032775   -4.5336122      1728000    1406.7157        38550         1490 
 7720000     1.030725   -4.5251476      1728000    1408.5208        38600         1490 
[...]
47970000    1.0083032   -4.7872201      1728000    9524.6151       239850         2947 
47980000    1.0336894   -4.8974022      1728000     9526.667       239900         2948 
47990000   0.96016287   -4.8466725      1728000    9528.7359       239950         2948 
48000000     0.963448   -4.7543301      1728000    9530.8537       240000         2948 
48010000    1.0354619   -4.8265312      1728000    9532.9356       240050         2948 
48020000   0.97669067   -4.7906023      1728000    9535.0255       240100         2948 
48030000   0.94923627    -4.770759      1728000    9537.1375       240150         2948 
48040000    0.9227787   -4.8945568      1728000    9539.2066       240200         2948 
48050000    1.0229252   -4.8847401      1728000    9541.2894       240250         2948 
48060000   0.92415684   -4.8443893      1728000    9543.4175       240300         2948 
48070000   0.98669772   -4.8556229      1728000    9545.4922       240350         2948 
48080000   0.97373322   -4.8187043      1728000    9547.5774       240400         2949 
48090000    1.0073119   -4.9239146      1728000    9549.6776       240450         2950 
48100000   0.95028004   -4.8272835      1728000    9551.6917       240500         2950 
48110000    1.0421193    -4.809601      1728000    9553.7815       240550         2950 
48120000    1.0130515   -4.9352297      1728000    9555.8292       240600         2950 
48130000   0.98386301    -4.909492      1728000    9557.9281       240650         2950 
48140000   0.99255696   -4.8508874      1728000    9559.9692       240700         2950 
48150000    1.0030143   -4.7690768      1728000    9562.0331       240750         2950 
48160000    1.0352669   -4.8269623      1728000     9564.101       240800         2950 
48170000   0.98172675   -4.8639097      1728000    9566.1776       240850         2950 
48180000   0.96324696    -4.900608      1728000    9568.2757       240900         2951 
48190000    1.0065929   -4.8263805      1728000    9570.3466       240950         2951 
48200000   0.97282576   -4.8115908      1728000    9572.4524       241000         2951 
48210000    1.0257287   -4.7972754      1728000    9574.5463       241050         2951 
48220000    0.9866996   -4.8258529      1728000    9576.6444       241100         2951 
48230000    1.0303177   -4.9039651      1728000    9578.7215       241150         2951 
48240000   0.96617653   -4.8632747      1728000    9580.7907       241200         2952 
48250000    1.0182204   -4.8538816      1728000    9582.8286       241250         2953 
48260000   0.99411394   -4.8057373      1728000    9584.8947       241300         2953 
48270000    1.0018012   -4.9305529      1728000    9586.9566       241350         2953 
48280000    1.0552627   -4.8336843      1728000    9588.9975       241400         2953 
48290000    1.0000035   -4.8789235      1728000    9591.0196       241450         2953 
48300000   0.96920249    -4.818902      1728000    9593.0563       241500         2955 
48310000    1.0171916   -4.8288276      1728000    9595.1329       241550         2956 
48320000    1.0122642   -4.8988605      1728000    9597.1741       241600         2956 
48330000   0.95533045   -4.8428936      1728000    9599.2445       241650         2957 
48340000    1.0654059   -4.9657833      1728000    9601.3544       241700         2957 
48350000   0.96845658   -4.8594515      1728000    9603.5157       241750         2957 
48360000    1.0583117   -4.7727269      1728000    9605.6009       241800         2958 
48370000   0.92506913   -4.9298342      1728000    9607.6892       241850         2960 
48380000   0.95774425   -4.8748772      1728000    9609.7797       241900         2960 
48390000    1.0475007   -4.7895048      1728000    9611.8624       241950         2960 
48400000   0.97705582   -4.9733176      1728000    9613.9485       242000         2961 
48410000    1.0483043   -4.9377337      1728000    9616.0232       242050         2961 
48420000   0.95361125   -4.9942844      1728000    9618.0945       242100         2961 
48430000   0.98742598   -4.9209044      1728000    9620.1431       242150         2961 
48440000   0.98094458   -4.8187629      1728000    9622.1777       242200         2961 
48450000   0.97612553   -4.9186533      1728000    9624.2077       242250         2962 
48460000   0.94413075   -4.8912553      1728000    9626.2737       242300         2962 
48470000    1.0033225   -4.9533238      1728000    9628.3436       242350         2962 
48480000   0.97070507   -4.9603501      1728000    9630.4136       242400         2962 
48490000    1.0026422   -4.8222486      1728000    9632.4705       242450         2962 
48500000   0.99857132   -4.9743391      1728000    9634.5491       242500         2962 
48510000    1.0149699   -4.8301476      1728000     9636.583       242550         2962 
48520000    1.0384546   -4.8022233      1728000     9638.617       242600         2962 
48530000    1.0153795   -4.8123291      1728000    9640.6899       242650         2962 
48540000     1.081476   -4.8016106      1728000    9642.7373       242700         2962 
48550000   0.93676434   -5.0042983      1728000    9644.8011       242750         2962 
48560000    1.0267621   -4.8627106      1728000    9646.8414       242800         2962 
48570000    1.0449586   -4.8938589      1728000    9648.8523       242850         2962 
48580000    1.0202693   -4.8938263      1728000    9650.9254       242900         2962 
48590000   0.99095884    -4.926491      1728000    9652.9313       242950         2962 
48600000   0.93503946   -4.7720238      1728000    9655.2849       243000         2962 
48610000    1.0255041    -4.794368      1728000    9657.3555       243050         2962 
48620000   0.95815662   -4.9593766      1728000    9659.3878       243100         2962 
48630000    1.0517315   -4.8934879      1728000    9661.4581       243150         2962 
48640000    1.0700014   -4.8551125      1728000     9663.479       243200         2962 
48650000    1.0307644   -4.8780393      1728000     9665.511       243250         2962 
48660000   0.97443654   -4.8838198      1728000    9667.5644       243300         2962 
48670000   0.99679897   -4.8167438      1728000    9669.5993       243350         2962 
48680000   0.94948481   -4.8920554      1728000    9671.7422       243400         2962 
48690000    1.0584022   -4.8574163      1728000     9673.886       243450         2962 
48700000   0.94303506   -4.8895697      1728000    9675.9906       243500         2962 
48710000    1.0292002   -4.8904018      1728000    9678.1057       243550         2962 
48720000   0.99851504   -5.0280245      1728000    9680.1776       243600         2962 
48730000   0.98158542   -4.8747218      1728000    9682.2597       243650         2962 
48740000   0.96475595   -4.9228541      1728000    9684.3607       243700         2962 
48750000   0.96817635   -4.9690686      1728000    9686.4315       243750         2962 
48760000   0.97803057   -4.7991313      1728000    9688.5304       243800         2962 
48770000    1.0182838   -4.9530596      1728000    9690.6255       243850         2962 
48780000    1.0699551    -4.886356      1728000    9692.6934       243900         2962 
48790000   0.97607215   -4.8448727      1728000    9694.7475       243950         2962 
48800000   0.98586114   -4.9331606      1728000    9696.8266       244000         2962 
48810000   0.95564219   -4.9184992      1728000    9698.8526       244050         2962 
48820000    1.0290453   -4.8806314      1728000    9700.8927       244100         2962 
48830000    1.0269076   -4.9156968      1728000    9702.9766       244150         2962 
48840000   0.99693581   -4.8955992      1728000    9704.9965       244200         2962 
48850000    1.0155812   -4.8643652      1728000    9707.0045       244250         2962 
48860000   0.99074689   -5.0580417      1728000    9709.0566       244300         2962 
48870000    1.0180371   -4.9073696      1728000    9711.1176       244350         2962 
48880000   0.96172309   -4.8804532      1728000    9713.1596       244400         2962 
48890000   0.99248537   -4.9084108      1728000    9715.1814       244450         2962 
48900000    1.0125603   -4.9530082      1728000    9717.2238       244500         2962 
48910000    1.0039724   -4.9870463      1728000    9719.2617       244550         2962 
48920000    1.0281265   -5.0474173      1728000    9721.2946       244600         2962 
48930000   0.99681484   -4.8290405      1728000    9723.3472       244650         2962 
48940000    1.0676901   -4.9336573      1728000    9725.4321       244700         2962 
48950000    1.0383008    -4.908982      1728000    9727.5196       244750         2962 
48960000    1.0327257   -4.9001697      1728000    9729.6106       244800         2962 
48970000    1.0490189   -4.9513183      1728000    9731.7039       244850         2962 
48980000   0.96509271   -5.0585951      1728000    9733.8008       244900         2962 
48990000    1.0192257    -4.932096      1728000    9735.8655       244950         2962 
49000000   0.97138343    -4.922412      1728000    9737.9397       245000         2962 
49010000    1.0406369   -4.8525912      1728000    9740.0658       245050         2962 
49020000   0.92303234    -4.985624      1728000    9742.1914       245100         2962 
49030000    1.0435016    -4.804437      1728000    9744.2907       245150         2962 
49040000     1.004925    -4.915209      1728000    9746.3828       245200         2962 
49050000   0.97562237   -4.9327117      1728000    9748.4527       245250         2962 
49060000    1.0167415   -4.7861679      1728000    9750.4996       245300         2962 
49070000      1.01132   -4.8806246      1728000    9752.5925       245350         2962 
49080000   0.94939511   -4.9324736      1728000    9754.6853       245400         2962 
49090000   0.99378783    -4.916586      1728000      9757.03       245450         2962 
49100000     1.032632   -4.9098352      1728000    9759.3317       245500         2962 
49110000   0.93748748    -4.778679      1728000    9761.4878       245550         2962 
49120000   0.96598492   -4.9551699      1728000    9763.5637       245600         2963 
49130000   0.95579057    -4.897529      1728000    9765.6377       245650         2963 
49140000   0.99445229   -4.9598762      1728000    9767.7676       245700         2963 
49150000    1.0819502   -4.9426755      1728000    9769.9493       245750         2964 
49160000   0.94365211   -4.9503521      1728000    9772.0821       245800         2964 
49170000    1.0123308   -5.0041137      1728000    9774.1692       245850         2965 
49180000   0.99270468   -4.7892256      1728000    9776.2541       245900         2965 
49190000   0.92376422   -4.8314701      1728000     9778.291       245950         2965 
49200000    1.0089729   -4.8124239      1728000    9780.4031       246000         2965 
49210000   0.99575858    -4.914597      1728000    9782.4834       246050         2966 
49220000   0.97828546   -4.9196264      1728000    9784.6052       246100         2966 
49230000    1.0567385   -4.7809687      1728000    9786.7192       246150         2967 
49240000    1.0362247   -4.8073556      1728000    9788.8251       246200         2967 
49250000     1.000274   -4.8570643      1728000    9790.9259       246250         2967 
49260000    0.9800317   -4.8679644      1728000    9793.0051       246300         2967 
49270000    1.0735841   -4.8620665      1728000    9795.0891       246350         2967 
49280000    1.0301676   -4.9401938      1728000    9797.1974       246400         2967 
49290000     1.015494   -4.7955474      1728000    9799.2993       246450         2967 
49300000    1.0103278   -4.7411211      1728000    9801.4014       246500         2967 
49310000   0.99917846   -4.9729226      1728000    9803.4902       246550         2968 
49320000    1.0861455   -4.7556576      1728000    9805.5361       246600         2968 
49330000   0.94578104   -5.0303497      1728000    9807.5553       246650         2968 
49340000   0.95984346   -4.9022802      1728000    9809.6092       246700         2968 
49350000   0.98642567   -4.8591485      1728000    9811.6345       246750         2968 
49360000   0.94750928   -4.9109759      1728000    9813.6574       246800         2970 
49370000    1.0104451   -4.9342425      1728000    9815.6876       246850         2972 
49380000    1.0060224   -4.8903681      1728000    9817.7711       246900         2972 
49390000    1.0449122   -4.9740416      1728000    9819.8463       246950         2972 
49400000   0.96764484   -4.7267132      1728000    9821.8722       247000         2972 
49410000    1.1112089   -4.9371822      1728000    9823.8921       247050         2972 
49420000   0.99890707   -4.8425348      1728000     9825.933       247100         2973 
49430000     1.004342   -4.9146116      1728000    9827.9809       247150         2973 
49440000    1.0019237   -4.9843917      1728000    9830.0129       247200         2973 
49450000    1.0451834   -4.8955644      1728000    9832.0228       247250         2973 
49460000    1.0250413   -4.8451434      1728000    9834.0497       247300         2973 
49470000    1.0090134   -4.7618789      1728000    9836.0921       247350         2973 
49480000    1.0475002   -4.9781961      1728000     9838.105       247400         2974 
49490000   0.91234703   -5.0426452      1728000     9840.116       247450         2974 
49500000   0.99855764   -5.0132021      1728000    9842.1539       247500         2974 
49510000    1.0261741   -5.0023265      1728000    9844.2018       247550         2974 
49520000   0.98436565   -5.0179898      1728000     9846.201       247600         2974 
49530000    1.0282091   -4.9502311      1728000    9848.2922       247650         2974 
49540000   0.96192574   -4.8934718      1728000    9850.3698       247700         2974 
49550000   0.94973426     -4.85881      1728000    9852.4352       247750         2974 
49560000   0.97826925   -5.0529999      1728000    9854.4801       247800         2974 
49570000     1.047795   -4.9294204      1728000    9856.5573       247850         2974 
49580000   0.96222276   -4.9446884      1728000    9858.6233       247900         2974 
49590000   0.96421091   -4.9233776      1728000    9860.7213       247950         2974 
49600000    1.0245066   -4.9080371      1728000    9862.8311       248000         2974 
49610000    1.0572505   -4.8213431      1728000     9864.914       248050         2974 
49620000    1.0723953   -4.9836306      1728000    9866.9772       248100         2974 
49630000    1.0416089   -4.9047273      1728000    9869.0399       248150         2974 
49640000    1.0069155   -5.0308813      1728000     9871.107       248200         2974 
49650000    1.0410753   -4.9091997      1728000    9873.1866       248250         2974 
49660000    1.0367941   -4.9380895      1728000    9875.2435       248300         2974 
49670000   0.99729171   -4.7977424      1728000    9877.3223       248350         2974 
49680000    1.0360402   -4.9691812      1728000    9879.4132       248400         2974 
49690000    0.9920738   -4.8189503      1728000    9881.5174       248450         2974 
49700000    1.0422047   -4.8308521      1728000    9883.5996       248500         2974 
49710000   0.98317623   -4.9439281      1728000    9885.6535       248550         2974 
49720000    1.0332531   -4.8209822      1728000    9887.7855       248600         2974 
49730000    1.0187455   -4.9073181      1728000    9890.4861       248650         2974 
49740000     1.018076   -4.8889651      1728000    9892.5743       248700         2974 
49750000   0.99065412   -4.9204762      1728000    9894.6874       248750         2974 
49760000   0.96917798     -5.01202      1728000     9896.792       248800         2974 
49770000    1.0269296   -4.8623276      1728000    9898.9117       248850         2974 
49780000   0.99735011     -4.99291      1728000    9901.0074       248900         2974 
49790000    1.0189489   -4.9444217      1728000    9903.0864       248950         2974 
49800000   0.99200964   -4.9633496      1728000    9905.1475       249000         2976 
49810000   0.99774919   -4.7576684      1728000    9907.1634       249050         2976 
49820000    1.0064877   -4.9870145      1728000    9909.3522       249100         2977 
49830000     1.005859   -4.9695369      1728000    9911.5199       249150         2977 
49840000   0.98481959   -4.7897278      1728000    9913.7107       249200         2977 
49850000    1.0537674   -4.8920647      1728000    9915.8277       249250         2977 
49860000   0.98461578   -4.9096983      1728000     9917.943       249300         2977 
49870000   0.98857855   -5.0049708      1728000     9919.996       249350         2977 
49880000   0.94716111   -4.9802704      1728000    9922.0661       249400         2978 
49890000   0.96724789   -4.9775391      1728000    9924.1649       249450         2978 
49900000     1.014696   -4.8789059      1728000    9926.2734       249500         2978 
49910000    1.0170304   -4.9034782      1728000    9928.3301       249550         2978 
49920000   0.99243594   -4.8534542      1728000     9930.392       249600         2978 
49930000     1.062974   -4.8824869      1728000    9932.4492       249650         2978 
49940000   0.97170356   -4.8890486      1728000    9934.5427       249700         2978 
49950000   0.99415942   -4.9336624      1728000     9936.644       249750         2978 
49960000   0.98274454   -4.9987309      1728000    9938.7602       249800         2978 
49970000   0.99355578   -4.9005941      1728000    9940.8038       249850         2978 
49980000    1.0182704   -4.9380893      1728000    9942.8919       249900         2978 
49990000    1.0314875   -4.7802554      1728000    9944.9795       249950         2978 
50000000    1.0080691    -4.925991      1728000    9947.0617       250000         2978 
Loop time of 9947.06 on 1 procs for 50000000 steps with 500 atoms

Performance: 4342989.767 tau/day, 5026.609 timesteps/s
99.0% CPU use with 1 MPI tasks x 1 OpenMP threads

MPI task timing breakdown:
Section |  min time  |  avg time  |  max time  |%varavg| %total
---------------------------------------------------------------
Pair    | 5217.6     | 5217.6     | 5217.6     |   0.0 | 52.45
Bond    | 1126.3     | 1126.3     | 1126.3     |   0.0 | 11.32
Neigh   | 1631.3     | 1631.3     | 1631.3     |   0.0 | 16.40
Comm    | 36.242     | 36.242     | 36.242     |   0.0 |  0.36
Output  | 18.236     | 18.236     | 18.236     |   0.0 |  0.18
Modify  | 1828.8     | 1828.8     | 1828.8     |   0.0 | 18.39
Other   |            | 88.55      |            |       |  0.89

Nlocal:    500 ave 500 max 500 min
Histogram: 1 0 0 0 0 0 0 0 0 0
Nghost:    0 ave 0 max 0 min
Histogram: 1 0 0 0 0 0 0 0 0 0
Neighs:    15893 ave 15893 max 15893 min
Histogram: 1 0 0 0 0 0 0 0 0 0

Total # of neighbors = 15893
Ave neighs/atom = 31.786
Ave special neighs/atom = 5.976
Neighbor list builds = 2444733
Dangerous builds = 0

################
## ULOOP    ####
################
clear
OMP_NUM_THREADS environment is not set. Defaulting to 1 thread. (../comm.cpp:87)
  using 1 OpenMP thread(s) per MPI task
variable rname delete
variable simname delete
variable folder delete
variable seed delete
variable E delete
variable RW delete
variable SimOutType delete
variable SimInType delete
variable jn delete
variable jf delete

next jbn
Increment via next: value 2 on partition 0
jump SELF #last line!!!

### If e.g. I run this on 10 partitions of 1 processor,
### and initialise the variable with 'uloop N'
### it will run 10 simulations with 'jobnumber' taking
### values 1-10. Then when a particular simulation finishes, the
### script will be run again with the next value of jobnumber,
### until N simulations have been run.
## SO ULOOP IS "SERIAL" BUT FOR SURE 10x1 PROCs ARE ALWAYS BUSY
Total wall time: 2:45:57
