LAMMPS (1 Feb 2019)
OMP_NUM_THREADS environment is not set. Defaulting to 1 thread. (../comm.cpp:87)
  using 1 OpenMP thread(s) per MPI task
####################################
####	ULOOP			####
####################################
variable jbn uloop 1  # run n simulations
variable startfrom equal 0
variable jn equal ${jbn}+${startfrom}
variable jn equal 1+${startfrom}
variable jn equal 1+0
print ${jn}
print 1
1
variable seed equal (9+4)*51-2*9
variable seedr equal (9+2)*22

#
variable N equal 2000
timestep 0.01
variable Dt equal 100000
variable Temp equal 1.0
variable Norm equal 0.88585294441338
if "${jn} <= 20" then "variable E equal 1.2"
variable E equal 1.2
#if "${jn} > 2 && ${jn} <= 4" then "variable E equal 1.5"
#if "${jn} > 4 && ${jn} <= 6" then "variable E equal 2.0"
#if "${jn} > 6 && ${jn} <= 8" then "variable E equal 2.5"
#if "${jn} > 8 && ${jn} <= 10" then "variable E equal 3.0"
#if "${jn} > 10 && ${jn} <= 12" then "variable E equal 3.5"
#if "${jn} > 12 && ${jn} <= 14" then "variable E equal 4.0"
#if "${jn} > 14 && ${jn} <= 16" then "variable E equal 4.5"
#if "${jn} > 16 && ${jn} <= 18" then "variable E equal 5.0"

#
####################################
####	DEFINTIONS 	########
####################################
#
variable N equal 500
variable folder index RW_Dt${Dt}_E${E}
variable folder index RW_Dt100000_E${E}
variable folder index RW_Dt100000_E1.2
shell mkdir ${folder}
shell mkdir RW_Dt100000_E1.2
variable SimOutType index RW${jn}Dt${Dt}E${E}
variable SimOutType index RW1Dt${Dt}E${E}
variable SimOutType index RW1Dt100000E${E}
variable SimOutType index RW1Dt100000E1.2
variable rname index INIT/Poly.N${N}.dat
variable rname index INIT/Poly.N500.dat
variable simname index Poly.N${N}.${SimOutType}
variable simname index Poly.N500.${SimOutType}
variable simname index Poly.N500.RW1Dt100000E1.2
#
units lj
atom_style angle
boundary        p p p
neighbor 1.3 bin
neigh_modify every 5 delay 5 check yes
#
restart 1000000 ${folder}/Restart.neutr.${simname}.
restart 1000000 RW_Dt100000_E1.2/Restart.neutr.${simname}.
restart 1000000 RW_Dt100000_E1.2/Restart.neutr.Poly.N500.RW1Dt100000E1.2.
print ${rname}
print INIT/Poly.N500.dat
INIT/Poly.N500.dat
read_data ${rname}
read_data INIT/Poly.N500.dat
  orthogonal box = (-50 -50 -50) to (50 50 50)
  1 by 1 by 1 MPI processor grid
  reading atoms ...
  500 atoms
  scanning bonds ...
  1 = max bonds/atom
  scanning angles ...
  1 = max angles/atom
  reading bonds ...
  499 bonds
  reading angles ...
  498 angles
  2 = max # of 1-2 neighbors
  2 = max # of 1-3 neighbors
  4 = max # of 1-4 neighbors
  6 = max # of special neighbors

####################################
####	GROUPS	             #######
####################################
group blue type 1
500 atoms in group blue
group red type 2
0 atoms in group red
group grey type 3
0 atoms in group grey

change_box all x final -60 60 y final -60 60 z final -60 60 boundary f f f units box
  orthogonal box = (-60 -50 -50) to (60 50 50)
  orthogonal box = (-60 -60 -50) to (60 60 50)
  orthogonal box = (-60 -60 -60) to (60 60 60)

####################################
####	ANGLE	             #######
####################################
angle_style   cosine
angle_coeff  1 3.0  #20 sigma for realistic DNA (1 bead = 2.5 nm)

####################################
####	PAIRS	             #######
####################################
pair_style  soft 2.5
pair_modify     shift yes
pair_coeff      * * 20 1.12246152962189

variable prefactor equal ramp(0,50)
fix pushapart all adapt 1 pair soft a * * v_prefactor

####################################
####	FENE	             #######
####################################
bond_style   fene
special_bonds fene#<=== I M P O R T A N T (new command)
  2 = max # of 1-2 neighbors
  6 = max # of special neighbors
bond_coeff   1  30.0   1.6  1.0  1.0

####################################
####	FIXES	             #######
####################################
fix 1 all   nve
fix 2 all  langevin   1.0 1.0   1.0   ${seed}
fix 2 all  langevin   1.0 1.0   1.0   645

####################################
####	WALL	             #######
####################################
fix WALL all wall/lj126 xhi EDGE 1.0 1.0 1.122462048 xlo EDGE 1.0 1.0 1.122462048 yhi EDGE 1.0 1.0 1.122462048 ylo EDGE 1.0 1.0 1.122462048 zhi EDGE 1.0 1.0 1.122462048 zlo EDGE 1.0 1.0 1.122462048 units box

####################################
####	RESET TIME             #######
####################################
reset_timestep 0

####################################
####	SWAP - ATOMS         #######
####################################
##HERE I USE fix atom/swap to attempt an atom swap between types
## In theory, I don't need to do a loop as the fix does it every
## N timesteps
##FIRST Dt IS NOT SWAPPING ANYWAY!
group Polymer type 1 2 3
500 atoms in group Polymer
fix Aswap Polymer atom/swap ${Dt} ${N} ${seed} ${Temp} semi-grand yes types 1 2 3 mu 0.0 0.0 0.0
fix Aswap Polymer atom/swap 100000 ${N} ${seed} ${Temp} semi-grand yes types 1 2 3 mu 0.0 0.0 0.0
fix Aswap Polymer atom/swap 100000 500 ${seed} ${Temp} semi-grand yes types 1 2 3 mu 0.0 0.0 0.0
fix Aswap Polymer atom/swap 100000 500 645 ${Temp} semi-grand yes types 1 2 3 mu 0.0 0.0 0.0
fix Aswap Polymer atom/swap 100000 500 645 1 semi-grand yes types 1 2 3 mu 0.0 0.0 0.0
variable Swaps equal f_Aswap[2]/1.0
variable Attempts equal f_Aswap[1]/1.0

####################################
####    THERMO AND INTEGRATION
####################################
timestep 0.01
thermo 10000
thermo_style   custom   step  temp  epair vol cpu v_Attempts v_Swaps

####################################
####	EQUILIBRATION        #######
####################################
#THIS IS TO TEST
#PUT LARGER NUMBER WHEN DOING ACTUAL SIMULATIONS
run 100000
Neighbor list info ...
  update every 5 steps, delay 5 steps, check yes
  max neighbors/atom: 2000, page size: 100000
  master list distance cutoff = 2.42246
  ghost atom cutoff = 2.42246
  binsize = 1.21123, bins = 100 100 100
  1 neighbor lists, perpetual/occasional/extra = 1 0 0
  (1) pair soft, perpetual
      attributes: half, newton on
      pair build: half/bin/newton
      stencil: half/bin/3d/newton
      bin: standard
Per MPI rank memory allocation (min/avg/max) = 9.234 | 9.234 | 9.234 Mbytes
Step Temp E_pair Volume CPU v_Attempts v_Swaps 
       0            0            0      1728000            0            0            0 
   10000    1.0276007 0.0018015669      1728000    1.0573082          500          500 
   20000    1.0077966 0.00057601169      1728000    1.9283931          500          500 
   30000    1.0219316 0.0058523598      1728000    2.7825172          500          500 
   40000    1.0067777 0.0022477798      1728000    3.6291111          500          500 
   50000    1.0042472 0.0031524335      1728000     4.478286          500          500 
   60000    0.9740897  0.001107363      1728000    5.3774381          500          500 
   70000     1.022064 0.00058993564      1728000    6.2592602          500          500 
   80000    1.0528225  0.001587787      1728000     7.119385          500          500 
   90000    1.0316721            0      1728000    8.0100951          500          500 
  100000     1.026371 0.0043018279      1728000    8.9364061          500          500 
Loop time of 8.9384 on 1 procs for 100000 steps with 500 atoms

Performance: 9666155.076 tau/day, 11187.679 timesteps/s
98.9% CPU use with 1 MPI tasks x 1 OpenMP threads

MPI task timing breakdown:
Section |  min time  |  avg time  |  max time  |%varavg| %total
---------------------------------------------------------------
Pair    | 0.66923    | 0.66923    | 0.66923    |   0.0 |  7.49
Bond    | 2.5946     | 2.5946     | 2.5946     |   0.0 | 29.03
Neigh   | 2.6292     | 2.6292     | 2.6292     |   0.0 | 29.41
Comm    | 0.11814    | 0.11814    | 0.11814    |   0.0 |  1.32
Output  | 0.018947   | 0.018947   | 0.018947   |   0.0 |  0.21
Modify  | 2.7903     | 2.7903     | 2.7903     |   0.0 | 31.22
Other   |            | 0.118      |            |       |  1.32

Nlocal:    500 ave 500 max 500 min
Histogram: 1 0 0 0 0 0 0 0 0 0
Nghost:    0 ave 0 max 0 min
Histogram: 1 0 0 0 0 0 0 0 0 0
Neighs:    849 ave 849 max 849 min
Histogram: 1 0 0 0 0 0 0 0 0 0

Total # of neighbors = 849
Ave neighs/atom = 1.698
Ave special neighs/atom = 1.996
Neighbor list builds = 4492
Dangerous builds = 0


unfix pushapart
unfix Aswap
reset_timestep 0

#######################################################
####	PAIRS -- REPULSIVE + REDS FERROMAGN 	#######
#######################################################
#ENERGYSCALE
variable Et equal ${E}/${Norm}
variable Et equal 1.2/${Norm}
variable Et equal 1.2/0.88585294441338

pair_style  lj/cut 1.8
pair_modify     shift yes
pair_coeff      * *  1.0 1.0 1.12246152962189

pair_coeff      1 1  ${Et} 1.0 1.8
pair_coeff      1 1  1.35462664268125 1.0 1.8
pair_coeff      1 2  1.0 1.0 1.12246152962189
pair_coeff      1 3  1.0 1.0 1.12246152962189

pair_coeff      2 2  ${Et} 1.0 1.8
pair_coeff      2 2  1.35462664268125 1.0 1.8
pair_coeff      2 3  1.0 1.0 1.12246152962189

pair_coeff      3 3  1.0 1.0 1.12246152962189
#######################################################


########################
## PER PRIMI VICINI   ##
########################
bond_style harmonic
special_bonds lj 1 1 1
  2 = max # of 1-2 neighbors
  2 = max # of 1-3 neighbors
  4 = max # of 1-4 neighbors
  6 = max # of special neighbors
bond_coeff 1 200 1.12246
#bond_style fene
#special_bonds fene
#bond_coeff 1 30 1.6 1.0 1.0

########################
## RECOLOR #############
########################
group Polymer type 1 2 3
500 atoms in group Polymer
variable smooth equal 10
variable dtsmooth equal ${Dt}/${smooth}
variable dtsmooth equal 100000/${smooth}
variable dtsmooth equal 100000/10
variable Nsmooth equal ${N}/${smooth}
variable Nsmooth equal 500/${smooth}
variable Nsmooth equal 500/10
fix Aswap Polymer atom/swap ${dtsmooth} ${Nsmooth} ${seedr} ${Temp} semi-grand yes types 1 2 3 mu 0.0 0.0 0.0
fix Aswap Polymer atom/swap 10000 ${Nsmooth} ${seedr} ${Temp} semi-grand yes types 1 2 3 mu 0.0 0.0 0.0
fix Aswap Polymer atom/swap 10000 50 ${seedr} ${Temp} semi-grand yes types 1 2 3 mu 0.0 0.0 0.0
fix Aswap Polymer atom/swap 10000 50 242 ${Temp} semi-grand yes types 1 2 3 mu 0.0 0.0 0.0
fix Aswap Polymer atom/swap 10000 50 242 1 semi-grand yes types 1 2 3 mu 0.0 0.0 0.0
variable Swaps equal f_Aswap[2]/1.0
variable Attempts equal f_Aswap[1]/1.0

####################################
####    DUMPS                 #######
####################################
##VMD
#dump 1 all custom 1000 ${folder}/${simname}.lammpstrj id mol type x y z
#dump_modify  1   format "%d %d %d %.5f %.5f %.5f"

##DAT
dump 2 all custom 100000 ${folder}/${simname}.* id type x y z ix iy iz
dump 2 all custom 100000 RW_Dt100000_E1.2/${simname}.* id type x y z ix iy iz
dump 2 all custom 100000 RW_Dt100000_E1.2/Poly.N500.RW1Dt100000E1.2.* id type x y z ix iy iz
#dump_modify   2   format "%d %d %.5f %.5f %.5f %d %d %d"

##CFG
#dump 3 all cfg 1000 ${folder}/CFG/${simname}.tot.*.cfg mass type xs ys zs id mol type
#dump_modify 3 element N C O Ca Xe

##XYZ
dump 4 all xyz 100000 XYZ_${simname}.xyz
dump 4 all xyz 100000 XYZ_Poly.N500.RW1Dt100000E1.2.xyz
dump_modify 4 element C O N Xe

###########################
thermo 10000
thermo_style   custom   step  temp  epair vol cpu v_Attempts v_Swaps
run 50000000
Neighbor list info ...
  update every 5 steps, delay 5 steps, check yes
  max neighbors/atom: 2000, page size: 100000
  master list distance cutoff = 3.1
  ghost atom cutoff = 3.1
  binsize = 1.55, bins = 78 78 78
  1 neighbor lists, perpetual/occasional/extra = 1 0 0
  (1) pair lj/cut, perpetual
      attributes: half, newton on
      pair build: half/bin/newton
      stencil: half/bin/3d/newton
      bin: standard
Per MPI rank memory allocation (min/avg/max) = 9.566 | 9.566 | 9.566 Mbytes
Step Temp E_pair Volume CPU v_Attempts v_Swaps 
       0     1.026371    2.0051684      1728000            0            0            0 
   10000    1.0203246  -0.34913749      1728000   0.85212803           50           41 
   20000   0.95708464  -0.36926797      1728000    1.7002711          100           78 
   30000     1.038169  -0.38162927      1728000     2.540493          150          114 
   40000   0.96521972  -0.37031412      1728000    3.3758421          200          142 
   50000    1.0266353   -0.4279928      1728000     4.208101          250          174 
   60000   0.95501594  -0.47152793      1728000     5.030792          300          205 
   70000   0.98741991   -0.5090706      1728000     5.899333          350          234 
   80000    0.9463942  -0.51597174      1728000      6.77161          400          262 
   90000    1.0076988  -0.53420802      1728000    7.6577151          450          289 
  100000   0.94008086   -0.4990911      1728000    8.5657849          500          321 
  110000    1.0939681  -0.61076239      1728000     9.421041          550          350 
  120000    1.0230154  -0.57874644      1728000    10.285745          600          378 
  130000   0.96825807  -0.55681169      1728000    11.165865          650          408 
  140000   0.90495481  -0.60779697      1728000    12.056953          700          436 
  150000    1.0302561  -0.73056212      1728000    12.962026          750          459 
  160000    1.0574584  -0.81577749      1728000    13.896105          800          485 
  170000    1.0426193  -0.82899624      1728000    14.825141          850          508 
  180000    1.0372207   -0.8242121      1728000    15.774279          900          527 
  190000     1.030073  -0.89761511      1728000    16.694736          950          552 
  200000    1.0129082  -0.90260851      1728000     17.63102         1000          572 
  210000    1.0490267  -0.82867675      1728000    18.561105         1050          594 
  220000     1.014524  -0.93027203      1728000    19.520941         1100          616 
  230000   0.99554321  -0.88590962      1728000    20.483001         1150          633 
  240000    1.0269705  -0.85568009      1728000    21.421768         1200          660 
  250000    1.0125855  -0.86390568      1728000    22.368003         1250          680 
  260000    1.0535708  -0.96593708      1728000    23.363005         1300          699 
  270000    1.0423591  -0.98153266      1728000    24.368867         1350          714 
  280000    1.0278998   -1.0582429      1728000    25.384876         1400          731 
  290000    1.0062284   -1.1379304      1728000    26.408555         1450          752 
  300000   0.97987553   -1.2305302      1728000    27.479865         1500          775 
  310000    1.0350953   -1.2382225      1728000    28.614041         1550          793 
  320000   0.96743315   -1.2305291      1728000    29.746863         1600          811 
  330000    1.0244092    -1.289464      1728000    30.815823         1650          829 
  340000    1.0199797   -1.2420342      1728000    31.884965         1700          848 
  350000   0.98189634   -1.2657331      1728000    32.999568         1750          865 
  360000   0.96888298   -1.4893519      1728000    34.131974         1800          882 
  370000     1.032683    -1.632098      1728000    35.327597         1850          903 
  380000    1.0360547   -1.5256303      1728000    36.498792         1900          918 
  390000    1.0025374   -1.6029279      1728000    37.702862         1950          933 
  400000   0.97434967   -1.6484474      1728000    38.914904         2000          948 
  410000   0.99385468   -1.6779408      1728000    40.078744         2050          964 
  420000   0.94855327    -1.734192      1728000     41.26096         2100          979 
  430000   0.99397629   -1.8616158      1728000    42.494696         2150          993 
  440000     1.079888   -1.8514543      1728000    43.778438         2200         1002 
  450000    1.0495125   -1.7438447      1728000    45.030915         2250         1018 
  460000    1.0149728   -1.8024815      1728000    46.269134         2300         1027 
  470000    1.0943251   -1.9458529      1728000    47.499126         2350         1038 
  480000    1.0306263   -1.9419136      1728000    48.815799         2400         1047 
  490000   0.98461894     -1.85013      1728000    50.121477         2450         1061 
  500000   0.95943364   -1.9032014      1728000    51.429138         2500         1076 
  510000   0.98194326   -1.9193544      1728000    52.729568         2550         1088 
  520000    1.0861819    -1.939817      1728000    54.029288         2600         1102 
  530000   0.95107398   -1.8820945      1728000    55.379013         2650         1116 
  540000   0.99175891    -2.056161      1728000    56.704751         2700         1133 
  550000   0.96699226   -2.0845428      1728000    58.103699         2750         1144 
  560000    1.0212228   -1.9019812      1728000    59.435656         2800         1156 
  570000    1.0237456   -1.9878098      1728000    60.739828         2850         1166 
  580000    1.0407494   -2.1902294      1728000    62.063788         2900         1179 
  590000    1.0226295   -2.1582158      1728000    63.442988         2950         1193 
  600000   0.99051273   -2.2249037      1728000    64.817664         3000         1204 
  610000    1.0194465   -2.2046282      1728000    66.151922         3050         1212 
  620000   0.96371749   -2.1752004      1728000    67.502702         3100         1225 
  630000    1.0305411   -2.2882043      1728000    68.901893         3150         1234 
  640000    1.0604981   -2.3025011      1728000    70.260955         3200         1248 
  650000   0.97413638   -2.2123865      1728000    71.685802         3250         1259 
  660000    1.0044455   -2.3709138      1728000    73.066864         3300         1266 
  670000   0.99186576   -2.2765703      1728000    74.445716         3350         1270 
  680000   0.93871075   -2.2257387      1728000    75.799888         3400         1279 
  690000    0.9556796   -2.4521447      1728000    77.190089         3450         1288 
  700000   0.99410535   -2.3259685      1728000    78.631785         3500         1297 
  710000    1.0182506   -2.3269729      1728000    80.026535         3550         1305 
  720000    1.0198274   -2.4235083      1728000     81.48508         3600         1319 
  730000    1.0881039   -2.5017522      1728000     82.92273         3650         1324 
  740000    1.0308794   -2.4743182      1728000    84.329919         3700         1330 
  750000   0.97145266   -2.6126052      1728000    85.755608         3750         1339 
  760000    1.0363713   -2.5822657      1728000    87.220664         3800         1346 
  770000   0.98576451   -2.4528146      1728000     88.68516         3850         1351 
  780000   0.96902267   -2.4793236      1728000    90.106784         3900         1364 
  790000   0.92510492   -2.7394084      1728000    91.537769         3950         1369 
  800000    1.0226697   -2.6312533      1728000    92.990635         4000         1378 
  810000    1.0283683   -2.5903998      1728000     94.45107         4050         1384 
  820000   0.96067051    -2.356945      1728000    95.924711         4100         1389 
  830000   0.94880169   -2.5558092      1728000    97.336001         4150         1402 
  840000   0.98316803   -2.5351039      1728000    98.813698         4200         1408 
  850000   0.97946854   -2.6827579      1728000    100.31874         4250         1415 
  860000   0.99933866   -2.9080836      1728000    101.93009         4300         1418 
  870000    1.0414866    -2.869448      1728000     103.8731         4350         1422 
  880000    1.0020809   -2.7442064      1728000    105.48152         4400         1426 
  890000   0.99498532   -2.8465057      1728000    107.11108         4450         1430 
  900000    1.0233851    -2.906401      1728000    108.70898         4500         1436 
  910000    1.0233421     -2.90889      1728000    110.32904         4550         1441 
  920000    1.0153742   -2.8321741      1728000    111.95256         4600         1447 
  930000   0.98975724   -3.0778268      1728000    113.56578         4650         1454 
  940000   0.98054029   -2.8849253      1728000    115.20031         4700         1462 
  950000    1.0099351   -3.0784256      1728000    116.80842         4750         1468 
  960000    1.0050242   -3.1634446      1728000     118.4515         4800         1473 
  970000   0.99519262   -3.0442588      1728000     120.0889         4850         1477 
  980000   0.99734544   -3.0944264      1728000    121.73313         4900         1480 
  990000   0.94609449   -3.1955817      1728000    123.46836         4950         1483 
 1000000    1.0030098   -3.0613871      1728000    125.36941         5000         1485 
 1010000   0.96257285   -3.0915195      1728000    127.21963         5050         1488 
 1020000   0.94383318   -3.0413195      1728000    128.88918         5100         1499 
 1030000    1.0241589   -3.1776565      1728000    130.53667         5150         1501 
 1040000     1.005541   -3.0893009      1728000    132.23709         5200         1508 
 1050000   0.97198982   -3.2703433      1728000    134.06323         5250         1511 
 1060000   0.98255473   -3.2857871      1728000    135.84625         5300         1520 
 1070000   0.98065162   -3.0730569      1728000    137.52402         5350         1530 
 1080000    1.0263937   -3.0552381      1728000    139.20352         5400         1534 
 1090000    1.0255682   -3.1437014      1728000    140.82377         5450         1538 
 1100000   0.99440415   -3.1328722      1728000    142.44982         5500         1544 
 1110000    1.0040986   -3.1016723      1728000    144.10361         5550         1547 
 1120000    1.0417339   -3.0579537      1728000    145.74975         5600         1550 
 1130000   0.99666848   -3.1325455      1728000     147.3937         5650         1556 
 1140000    1.0455567    -3.068704      1728000    149.03182         5700         1560 
 1150000   0.99203349    -3.101432      1728000    150.76745         5750         1563 
 1160000    1.0191256   -3.0888976      1728000    152.45091         5800         1566 
 1170000   0.95247457   -3.1550953      1728000    154.16215         5850         1571 
 1180000    0.9432816   -3.0659249      1728000    156.10616         5900         1577 
 1190000   0.98779902   -3.1825502      1728000    157.77651         5950         1582 
 1200000   0.95828204   -3.0887782      1728000    159.47997         6000         1587 
 1210000    1.0075081   -3.2262877      1728000     161.1243         6050         1588 
 1220000    1.0101061   -3.1704091      1728000    162.81356         6100         1592 
 1230000    1.0567921   -3.1248128      1728000    164.51881         6150         1594 
 1240000    1.0060267   -3.1870521      1728000    166.20408         6200         1599 
 1250000    1.0322441   -3.1122811      1728000    167.92332         6250         1604 
 1260000   0.96879919   -3.2228064      1728000    169.60572         6300         1607 
 1270000    1.0500025   -3.2695064      1728000    171.29247         6350         1608 
 1280000   0.96583831   -3.3049281      1728000    172.96136         6400         1611 
 1290000   0.97626161   -3.1590359      1728000    174.61899         6450         1613 
 1300000    1.0226509   -3.1225626      1728000    176.27967         6500         1616 
 1310000   0.95820963   -3.2570791      1728000    177.91569         6550         1622 
 1320000   0.94661754   -3.3138703      1728000    179.55075         6600         1631 
 1330000    1.0645859   -3.1677151      1728000    181.21711         6650         1635 
 1340000    1.0740352    -3.266309      1728000     182.8898         6700         1641 
 1350000    1.0387167   -3.2650429      1728000    184.54078         6750         1645 
 1360000    1.0840248   -3.2318181      1728000    186.19546         6800         1649 
 1370000    1.1300113   -3.2689844      1728000    187.86914         6850         1653 
 1380000    1.0284778   -3.2184833      1728000    189.56497         6900         1657 
 1390000    1.0162513   -3.2879908      1728000    191.23836         6950         1660 
 1400000    1.0042972   -3.3857785      1728000    192.93915         7000         1662 
 1410000   0.99948862   -3.1579806      1728000    194.69591         7050         1664 
 1420000   0.98595799   -3.3110842      1728000     196.4042         7100         1666 
 1430000    1.0247676   -3.1461654      1728000    198.08048         7150         1669 
 1440000   0.99085666   -3.3309895      1728000    199.76645         7200         1672 
 1450000   0.91541462   -3.3193211      1728000    201.49372         7250         1677 
 1460000    1.1029654   -3.3149826      1728000    203.23233         7300         1682 
 1470000    1.0191375   -3.3338082      1728000    204.97975         7350         1687 
 1480000     1.053045    -3.348209      1728000    206.68352         7400         1689 
 1490000    0.9975629   -3.2267057      1728000    208.37234         7450         1690 
 1500000   0.99142206   -3.3137174      1728000    210.04772         7500         1693 
 1510000    1.0164496   -3.1889983      1728000    211.73969         7550         1697 
 1520000   0.97611437   -3.3550077      1728000    213.48546         7600         1698 
 1530000   0.99056917   -3.1935829      1728000    215.18384         7650         1702 
 1540000    1.0030794   -3.2891638      1728000    216.85883         7700         1706 
 1550000   0.99387431   -3.1703785      1728000    218.56405         7750         1713 
 1560000   0.99485654   -3.2462209      1728000    220.25864         7800         1714 
 1570000    0.8964774    -3.383381      1728000    221.94726         7850         1716 
 1580000    1.0341234   -3.4222366      1728000    223.73144         7900         1718 
 1590000   0.99010969   -3.3427334      1728000    225.52076         7950         1723 
 1600000    1.0040169   -3.3341592      1728000    227.28795         8000         1727 
 1610000   0.99259537   -3.3400892      1728000    229.13006         8050         1728 
 1620000    0.9301337   -3.1842041      1728000    230.82143         8100         1729 
 1630000   0.97188588   -3.2649612      1728000    232.49457         8150         1733 
 1640000    1.0316657   -3.3121377      1728000    234.18481         8200         1737 
 1650000    0.9917082   -3.3293817      1728000    235.91041         8250         1737 
 1660000    1.0371238   -3.1434438      1728000    237.55147         8300         1742 
 1670000     1.012011   -3.2915932      1728000    239.19764         8350         1746 
 1680000   0.92080093   -3.2915947      1728000    240.86252         8400         1747 
 1690000    1.0618715   -3.3361037      1728000    242.53547         8450         1751 
 1700000   0.97543062   -3.3472828      1728000     244.2315         8500         1753 
 1710000   0.98697923    -3.329051      1728000    245.98162         8550         1754 
 1720000   0.98736334   -3.2382733      1728000    247.67754         8600         1759 
 1730000    1.0647836   -3.1475267      1728000    249.37144         8650         1762 
 1740000    1.0871117    -3.237192      1728000    251.08654         8700         1768 
 1750000    1.0558747   -3.2800129      1728000    252.76127         8750         1771 
 1760000   0.89044935    -3.444195      1728000    254.46943         8800         1774 
 1770000   0.96499318   -3.3810804      1728000    256.20842         8850         1777 
 1780000    1.0692444   -3.2956319      1728000    257.90457         8900         1779 
 1790000    1.0340299   -3.3927622      1728000    259.58972         8950         1780 
 1800000    0.9951959   -3.3006138      1728000     261.2814         9000         1784 
 1810000    1.0146279   -3.4471151      1728000    262.99653         9050         1787 
 1820000    1.0684196   -3.3131237      1728000    264.72759         9100         1788 
 1830000    1.0034633   -3.4133644      1728000     266.4206         9150         1791 
 1840000    1.0081237   -3.2368608      1728000    268.09547         9200         1792 
 1850000    1.0343838   -3.3301671      1728000    269.77763         9250         1797 
 1860000    0.9547985   -3.3653716      1728000    271.48144         9300         1800 
 1870000   0.91787235   -3.3744173      1728000    273.20474         9350         1804 
 1880000   0.96228271   -3.2481545      1728000    274.89762         9400         1806 
 1890000   0.99295361   -3.3528495      1728000    276.58254         9450         1807 
 1900000   0.99223676   -3.4015564      1728000    278.27453         9500         1807 
 1910000   0.98857863    -3.415752      1728000    279.98248         9550         1810 
 1920000    1.0151161   -3.3828107      1728000    281.69548         9600         1814 
 1930000   0.96384396   -3.4609482      1728000    283.43224         9650         1816 
 1940000   0.99753424   -3.2833847      1728000    285.17048         9700         1818 
 1950000    1.0308248   -3.4979084      1728000    286.92459         9750         1822 
 1960000   0.99378046   -3.5016457      1728000    288.62652         9800         1823 
 1970000   0.99315324   -3.3972706      1728000    290.31691         9850         1823 
 1980000    0.9634923   -3.4130164      1728000    292.04115         9900         1829 
 1990000   0.98111507   -3.2597104      1728000    293.74425         9950         1829 
 2000000    1.0147629   -3.2506622      1728000    295.49171        10000         1832 
 2010000   0.94189591   -3.4300199      1728000    297.18554        10050         1834 
 2020000    0.9723571   -3.3492052      1728000    298.90278        10100         1837 
 2030000   0.99109064   -3.4347559      1728000    300.62118        10150         1840 
 2040000   0.99153518   -3.3944829      1728000     302.3557        10200         1842 
 2050000   0.98797531   -3.5276968      1728000    304.09963        10250         1845 
 2060000    1.0575423   -3.5415024      1728000     305.8017        10300         1848 
 2070000   0.98258055   -3.4658969      1728000    307.53661        10350         1848 
 2080000    1.0165233     -3.50766      1728000    309.41189        10400         1852 
 2090000   0.96557264   -3.6549191      1728000     311.1572        10450         1853 
 2100000    1.0415734   -3.3868054      1728000    312.88945        10500         1856 
 2110000    1.0031252   -3.5568427      1728000    314.59755        10550         1857 
 2120000   0.99711568   -3.5681092      1728000    316.33836        10600         1859 
 2130000     1.012626   -3.5419456      1728000    318.06455        10650         1859 
 2140000   0.99529284   -3.3005146      1728000     319.8153        10700         1860 
 2150000   0.99176654      -3.5171      1728000    321.54955        10750         1865 
 2160000    1.1420333   -3.5729353      1728000     323.2843        10800         1866 
 2170000    1.0791271   -3.4191619      1728000    325.02541        10850         1867 
 2180000     1.005086   -3.5354933      1728000    326.74735        10900         1868 
 2190000    1.0097397   -3.4564719      1728000    328.47527        10950         1870 
 2200000    1.0037448   -3.5670917      1728000    330.23043        11000         1872 
 2210000    1.0065529   -3.4569113      1728000    332.00439        11050         1872 
 2220000    1.0714906   -3.5044455      1728000    333.78695        11100         1872 
 2230000    1.0389622    -3.575068      1728000    335.55027        11150         1873 
 2240000   0.99312555   -3.4616472      1728000    337.31022        11200         1875 
 2250000   0.99909949   -3.5563627      1728000    339.05657        11250         1876 
 2260000   0.95217096   -3.4874866      1728000    340.80826        11300         1879 
 2270000    1.0009303   -3.4846677      1728000    342.56152        11350         1880 
 2280000    1.0256626   -3.3933263      1728000    344.45259        11400         1882 
 2290000    1.0545039   -3.3860647      1728000    346.22377        11450         1885 
 2300000    1.0169898   -3.5463139      1728000    347.95236        11500         1889 
 2310000   0.99065972   -3.3838505      1728000    349.71437        11550         1890 
 2320000     1.017026   -3.4934142      1728000     351.4524        11600         1891 
 2330000    0.9757082   -3.5475707      1728000     353.1771        11650         1893 
 2340000   0.97566326   -3.5871822      1728000    354.88162        11700         1895 
 2350000    1.0321752   -3.3919832      1728000     356.6105        11750         1897 
 2360000    1.0258846   -3.4589536      1728000    358.32377        11800         1899 
 2370000    1.0005109   -3.5179623      1728000    360.03955        11850         1901 
 2380000   0.95402714   -3.5443917      1728000    361.76445        11900         1903 
 2390000   0.92387157   -3.5749703      1728000    363.53644        11950         1903 
 2400000    1.0081782   -3.5669751      1728000    365.30573        12000         1904 
 2410000    1.0012164   -3.4888728      1728000    367.07946        12050         1906 
 2420000    1.0046867   -3.5411472      1728000     368.8624        12100         1907 
 2430000    1.0016567   -3.5809212      1728000    370.67127        12150         1908 
 2440000    1.0154319   -3.5042786      1728000    372.45514        12200         1908 
 2450000      1.02512   -3.5062977      1728000    374.24849        12250         1908 
 2460000    1.0521288   -3.5683509      1728000    376.02829        12300         1908 
 2470000   0.96304002   -3.4922118      1728000    377.83628        12350         1910 
 2480000    1.0484911    -3.626607      1728000    379.61929        12400         1912 
 2490000   0.98893778   -3.5172389      1728000    381.40753        12450         1913 
 2500000     1.014746   -3.5764541      1728000    383.30692        12500         1913 
 2510000   0.98019326   -3.4616202      1728000    385.08634        12550         1913 
 2520000    1.0465539   -3.5187901      1728000    386.85463        12600         1917 
 2530000    1.0435793   -3.6300624      1728000     388.6333        12650         1919 
 2540000    1.0100573   -3.4326275      1728000    390.41734        12700         1923 
 2550000    1.0392407   -3.4328253      1728000    392.19397        12750         1925 
 2560000    1.0094538   -3.4934512      1728000    393.97335        12800         1926 
 2570000    1.0502958   -3.5879589      1728000    395.74593        12850         1927 
 2580000    1.0009903   -3.4501666      1728000    397.51628        12900         1929 
 2590000     1.007102   -3.5020239      1728000    399.29138        12950         1932 
 2600000   0.95445268   -3.4230637      1728000    401.05414        13000         1935 
 2610000   0.97937062    -3.586444      1728000    402.81485        13050         1940 
 2620000    0.9404319    -3.542978      1728000    404.58806        13100         1941 
 2630000    1.0548736   -3.4124903      1728000    406.38626        13150         1944 
 2640000    1.0161123   -3.4046631      1728000    408.18342        13200         1947 
 2650000    1.0042288   -3.6329437      1728000    409.96959        13250         1948 
 2660000   0.98263843   -3.4917128      1728000    411.74585        13300         1951 
 2670000      1.01167   -3.5223819      1728000    413.50126        13350         1952 
 2680000    1.0024768   -3.5127325      1728000    415.26313        13400         1952 
 2690000   0.95202295   -3.5878337      1728000    416.97306        13450         1953 
 2700000     1.001597   -3.5883841      1728000    418.70995        13500         1957 
 2710000    1.0055876   -3.4818217      1728000    420.42699        13550         1961 
 2720000    1.0356327   -3.5470661      1728000    422.17929        13600         1962 
 2730000   0.99058157   -3.5281365      1728000    423.92339        13650         1965 
 2740000    1.0975374   -3.5104735      1728000     425.6723        13700         1966 
 2750000   0.97016466   -3.5124644      1728000    427.46135        13750         1966 
 2760000    1.0547287   -3.5011288      1728000    429.22729        13800         1967 
 2770000    1.0483776   -3.5618244      1728000    430.98207        13850         1969 
 2780000    1.0157945    -3.504942      1728000    432.78314        13900         1969 
 2790000    1.0811629   -3.4485735      1728000    434.51539        13950         1970 
 2800000    1.0093007   -3.4176993      1728000    436.25316        14000         1975 
 2810000   0.98371867   -3.5147778      1728000    437.98352        14050         1976 
 2820000    1.0336489    -3.626655      1728000    439.78615        14100         1979 
 2830000    1.0375513   -3.3699528      1728000    441.55171        14150         1980 
 2840000   0.93432889   -3.6510815      1728000     443.2973        14200         1981 
 2850000    1.0080765   -3.5482902      1728000     445.1068        14250         1981 
 2860000    1.0271768    -3.554431      1728000    446.87913        14300         1983 
 2870000    1.0104479   -3.6084818      1728000    448.64732        14350         1983 
 2880000    1.0412469   -3.6178005      1728000    450.41367        14400         1985 
 2890000    1.0353935   -3.4376109      1728000    452.18599        14450         1987 
 2900000    1.0290446   -3.6303285      1728000    454.05558        14500         1989 
 2910000    0.9950819    -3.587925      1728000     455.8341        14550         1989 
 2920000    1.0587708   -3.5487695      1728000    457.58741        14600         1990 
 2930000   0.90196408   -3.5482662      1728000    459.31216        14650         1991 
 2940000    0.9911753   -3.5310793      1728000    461.08333        14700         1994 
 2950000    1.0477278    -3.656876      1728000    462.83583        14750         1994 
 2960000    1.0004723   -3.5386598      1728000    464.61414        14800         1995 
 2970000    1.0144556   -3.4176814      1728000    466.42534        14850         1998 
 2980000     1.002163   -3.5484816      1728000    468.29943        14900         1998 
 2990000   0.99689405    -3.550027      1728000    470.11357        14950         1999 
 3000000    1.0095404   -3.6396507      1728000    471.91308        15000         2001 
 3010000    1.0053645   -3.6927289      1728000    473.77601        15050         2001 
 3020000   0.99888276   -3.5714795      1728000     475.5177        15100         2003 
 3030000   0.97969932   -3.4702644      1728000    477.39105        15150         2006 
 3040000   0.95343802   -3.6356018      1728000    479.12104        15200         2007 
 3050000    1.0171207   -3.5204126      1728000    480.95604        15250         2009 
 3060000    1.0486156   -3.5350325      1728000    482.77418        15300         2009 
 3070000   0.93375874   -3.5393226      1728000    484.52135        15350         2012 
 3080000     1.010056   -3.4567992      1728000    486.31095        15400         2014 
 3090000    1.0232228   -3.6342737      1728000    488.12894        15450         2016 
 3100000    1.0357997   -3.5423138      1728000    489.99802        15500         2017 
 3110000    1.0337486   -3.5639641      1728000    491.75517        15550         2020 
 3120000   0.94907703   -3.6064866      1728000    493.49225        15600         2021 
 3130000   0.96224575   -3.5179448      1728000    495.26635        15650         2021 
 3140000   0.95512904    -3.622985      1728000     497.0132        15700         2021 
 3150000   0.99853177   -3.5091034      1728000    498.76423        15750         2022 
 3160000    0.9896611   -3.5227147      1728000    500.49911        15800         2025 
 3170000   0.97148794   -3.5396179      1728000    502.26522        15850         2027 
 3180000    1.0108997   -3.5147034      1728000    504.03519        15900         2028 
 3190000    1.0903761   -3.5853142      1728000    505.79647        15950         2031 
 3200000   0.95769024   -3.5257987      1728000    507.57981        16000         2032 
 3210000    1.0873133   -3.4783892      1728000    509.36429        16050         2033 
 3220000    1.0095811   -3.4298525      1728000    511.13138        16100         2035 
 3230000    1.0185101   -3.5735059      1728000    512.88376        16150         2035 
 3240000    1.0555843   -3.5328681      1728000    514.68295        16200         2036 
 3250000    1.0009588   -3.4624384      1728000    516.44918        16250         2036 
 3260000   0.98699201    -3.577951      1728000    518.22247        16300         2036 
 3270000   0.97414546   -3.5937094      1728000     519.9835        16350         2037 
 3280000    1.0236869    -3.568035      1728000    521.73218        16400         2039 
 3290000   0.99168406   -3.5740458      1728000    523.53264        16450         2041 
 3300000   0.98410737   -3.6316355      1728000     525.2917        16500         2043 
 3310000    1.0481133   -3.3950558      1728000    527.03118        16550         2043 
 3320000    1.0099184   -3.5643308      1728000    528.73656        16600         2045 
 3330000   0.98171588   -3.6865012      1728000     530.4712        16650         2046 
 3340000   0.96721552   -3.4655796      1728000    532.20618        16700         2049 
 3350000    1.0049272    -3.566058      1728000    534.03428        16750         2051 
 3360000    1.0218676   -3.5462231      1728000    535.77206        16800         2054 
 3370000    1.0117759   -3.5386468      1728000    537.50227        16850         2055 
 3380000    1.0298413   -3.4572817      1728000    539.22892        16900         2055 
 3390000   0.92554897   -3.4776171      1728000    540.95508        16950         2058 
 3400000   0.99402412   -3.4703645      1728000    542.68937        17000         2059 
 3410000   0.97194778   -3.4502536      1728000    544.40718        17050         2061 
 3420000    1.0427009   -3.5270235      1728000    546.23044        17100         2061 
 3430000    1.0144004   -3.6608872      1728000    547.95316        17150         2064 
 3440000   0.99323816   -3.5242091      1728000    549.69091        17200         2065 
 3450000    1.0228743   -3.5533125      1728000    551.40302        17250         2065 
 3460000   0.95250559   -3.5796475      1728000    553.12313        17300         2067 
 3470000    1.0004677   -3.5002925      1728000    554.84917        17350         2068 
 3480000   0.95261343   -3.4474659      1728000    556.55138        17400         2070 
 3490000    1.0810079   -3.5080805      1728000    558.26431        17450         2071 
 3500000   0.96247525   -3.4829241      1728000     559.9802        17500         2073 
 3510000     1.003694   -3.4355472      1728000    561.70816        17550         2074 
 3520000    1.0258243    -3.541323      1728000    563.41521        17600         2076 
 3530000   0.97641556   -3.5061364      1728000    565.12612        17650         2078 
 3540000    1.0296575   -3.5279655      1728000    566.83499        17700         2079 
 3550000   0.96264297    -3.492593      1728000    568.54197        17750         2082 
 3560000    1.0729364   -3.5578467      1728000    570.25807        17800         2083 
 3570000    1.0306654   -3.5503627      1728000    571.99305        17850         2083 
 3580000    1.0125974   -3.5435078      1728000    573.71512        17900         2083 
 3590000   0.97052549   -3.5005183      1728000    575.49409        17950         2084 
 3600000   0.99236073   -3.4563664      1728000    577.23409        18000         2086 
 3610000    1.0100907   -3.4912395      1728000    578.96414        18050         2090 
 3620000    0.9700109   -3.5804783      1728000    580.69193        18100         2090 
 3630000    1.0023735   -3.5722198      1728000    582.42095        18150         2093 
 3640000   0.94671495   -3.5916326      1728000    584.14001        18200         2098 
 3650000   0.93585574   -3.4649828      1728000    585.85898        18250         2099 
 3660000    1.0106512   -3.5275714      1728000    587.58307        18300         2101 
 3670000    1.0187963   -3.4076314      1728000     589.3051        18350         2101 
 3680000    1.0139789   -3.4384733      1728000    591.00587        18400         2102 
 3690000    1.0493618   -3.4619234      1728000    592.73146        18450         2104 
 3700000   0.92297874   -3.4272961      1728000    594.45093        18500         2107 
 3710000   0.92861416   -3.4196905      1728000    596.15244        18550         2107 
 3720000   0.99496848   -3.4604826      1728000     597.8782        18600         2109 
 3730000   0.96808351   -3.4213878      1728000      599.622        18650         2113 
 3740000   0.99065642   -3.5459217      1728000    601.37505        18700         2115 
 3750000    0.9480023   -3.4681256      1728000    603.10597        18750         2116 
 3760000    1.0034299   -3.5310279      1728000    604.84419        18800         2121 
 3770000     1.015124   -3.4595688      1728000     606.5797        18850         2121 
 3780000    1.1214729   -3.5303845      1728000    608.37098        18900         2124 
 3790000   0.98039886   -3.4603998      1728000    610.24921        18950         2126 
 3800000    1.0651462   -3.4314299      1728000    612.13327        19000         2129 
 3810000    1.0015172   -3.4370381      1728000    613.92543        19050         2130 
 3820000   0.96557018   -3.4876788      1728000     615.7127        19100         2131 
 3830000    1.0294718   -3.4378308      1728000    617.53884        19150         2132 
 3840000    1.0034012   -3.5705901      1728000    619.36196        19200         2136 
 3850000    1.0185403     -3.66824      1728000    621.16635        19250         2140 
 3860000    1.0206922   -3.7259906      1728000    622.92453        19300         2141 
 3870000   0.95189339   -3.4062676      1728000    624.79761        19350         2142 
 3880000   0.96034593   -3.4858979      1728000    626.54259        19400         2144 
 3890000    0.9879829   -3.5058785      1728000    628.34575        19450         2147 
 3900000    1.0310147   -3.4250365      1728000    630.13691        19500         2149 
 3910000   0.97522381   -3.6132207      1728000    631.91813        19550         2150 
 3920000    1.0117912   -3.5554889      1728000    633.66742        19600         2154 
 3930000   0.97611613   -3.4430321      1728000    635.43961        19650         2154 
 3940000   0.93184165   -3.3813462      1728000    637.20082        19700         2156 
 3950000   0.97734371   -3.5509605      1728000    638.92219        19750         2157 
 3960000    1.0327454   -3.5728343      1728000    640.63949        19800         2159 
 3970000   0.99029553   -3.6367995      1728000    642.36552        19850         2159 
 3980000   0.98598422   -3.4146126      1728000     644.1065        19900         2160 
 3990000    1.0231274   -3.5143835      1728000     645.8597        19950         2161 
 4000000   0.97140469   -3.5879924      1728000    647.71001        20000         2163 
 4010000    1.0166441   -3.5855291      1728000    649.51303        20050         2163 
 4020000    1.0106858   -3.5667831      1728000    651.33292        20100         2163 
 4030000    1.0415533   -3.6471309      1728000    653.21093        20150         2164 
 4040000    1.0219688   -3.6105185      1728000    654.96482        20200         2165 
 4050000   0.99047426   -3.6067475      1728000    656.70281        20250         2167 
 4060000   0.96451708   -3.5417365      1728000    658.44495        20300         2167 
 4070000    1.0181902   -3.5706549      1728000    660.17383        20350         2168 
 4080000    1.0265863   -3.4278676      1728000    661.89601        20400         2170 
 4090000     1.006819   -3.4305209      1728000    663.63984        20450         2171 
 4100000    1.0352925   -3.5587223      1728000     665.3677        20500         2174 
 4110000   0.97959947   -3.6044675      1728000    667.09839        20550         2176 
 4120000   0.96451318   -3.4085215      1728000    668.83473        20600         2178 
 4130000   0.99803822   -3.4213582      1728000    670.59605        20650         2178 
 4140000   0.96977329   -3.4194044      1728000    672.36387        20700         2180 
 4150000    1.0549638   -3.5244196      1728000     674.0977        20750         2181 
 4160000   0.98090786   -3.5563096      1728000    675.88798        20800         2182 
 4170000    1.0261639   -3.4601038      1728000     677.6394        20850         2184 
 4180000    1.0415927   -3.4760878      1728000    679.43757        20900         2185 
 4190000   0.99046722   -3.4983891      1728000    681.19291        20950         2189 
 4200000    1.0393877   -3.6000649      1728000    682.93794        21000         2190 
 4210000    1.0442712    -3.504602      1728000    684.69187        21050         2192 
 4220000   0.99044515   -3.5840453      1728000    686.53171        21100         2193 
 4230000   0.93774459   -3.5550154      1728000    688.29873        21150         2193 
 4240000   0.94542633    -3.523434      1728000    690.03393        21200         2194 
 4250000   0.99177898   -3.3494272      1728000    691.81442        21250         2194 
 4260000   0.97677916   -3.7472902      1728000    693.58139        21300         2196 
 4270000    0.9762459   -3.5504398      1728000    695.33861        21350         2197 
 4280000    1.0560622   -3.6280966      1728000    697.06764        21400         2202 
 4290000    1.0540714   -3.4836149      1728000    698.85404        21450         2207 
 4300000    1.0073219   -3.7609725      1728000    700.60985        21500         2211 
 4310000    0.9894929   -3.4420171      1728000    702.34894        21550         2211 
 4320000    1.0231627   -3.5279021      1728000    704.11527        21600         2212 
 4330000    1.0010999   -3.5317756      1728000    705.89244        21650         2213 
 4340000     1.105276    -3.483652      1728000     707.6563        21700         2215 
 4350000   0.97393462    -3.525235      1728000     709.4031        21750         2215 
 4360000    1.0280261    -3.553021      1728000    711.14679        21800         2215 
 4370000    1.0224406    -3.533638      1728000    712.90089        21850         2217 
 4380000    1.0167462   -3.4385374      1728000    714.64323        21900         2218 
 4390000   0.98019531   -3.5898893      1728000     716.3672        21950         2221 
 4400000    0.9835797   -3.6102568      1728000    718.09288        22000         2221 
 4410000    1.0278669   -3.4263666      1728000    719.82288        22050         2221 
 4420000    0.9384665   -3.4765491      1728000    721.56052        22100         2221 
 4430000    1.0231168   -3.4387833      1728000    723.26279        22150         2221 
 4440000    1.0010414   -3.5696296      1728000     725.0017        22200         2223 
 4450000    1.0012236   -3.4876094      1728000    726.76473        22250         2226 
 4460000    0.9290747   -3.4637571      1728000    728.49307        22300         2227 
 4470000   0.93981299   -3.6080431      1728000    730.21989        22350         2227 
 4480000   0.99775577   -3.5982577      1728000    731.94252        22400         2227 
 4490000    1.0081889     -3.50747      1728000    733.65444        22450         2227 
 4500000    1.0260567   -3.4021309      1728000    735.43497        22500         2229 
 4510000     1.011638   -3.4828726      1728000    737.14426        22550         2230 
 4520000    1.0146458   -3.3771065      1728000    738.89618        22600         2231 
 4530000     1.022922   -3.4953524      1728000    740.66807        22650         2231 
 4540000   0.99289285   -3.5528594      1728000    742.43856        22700         2232 
 4550000   0.98717543   -3.5446341      1728000    744.17907        22750         2233 
 4560000   0.99262701   -3.4837354      1728000    745.88864        22800         2233 
 4570000    0.9217399   -3.6489977      1728000    747.65342        22850         2233 
 4580000    1.0457059   -3.4320431      1728000    749.49854        22900         2234 
 4590000    1.0238334    -3.718106      1728000     751.2805        22950         2237 
 4600000    1.0444369   -3.6100251      1728000    753.09669        23000         2237 
 4610000    1.0663527   -3.6276839      1728000    754.86388        23050         2237 
 4620000   0.97920306   -3.6550018      1728000    756.60494        23100         2238 
 4630000    1.0260416   -3.5336901      1728000    758.32537        23150         2241 
 4640000   0.99572464   -3.5436575      1728000    760.07273        23200         2243 
 4650000   0.97079996   -3.5827245      1728000    761.80665        23250         2246 
 4660000    1.0430682   -3.5554819      1728000     763.5934        23300         2247 
 4670000    1.0701212   -3.4695112      1728000    765.34734        23350         2248 
 4680000     1.035442   -3.6238848      1728000     767.1456        23400         2249 
 4690000    1.0624669   -3.6540219      1728000    768.92473        23450         2249 
 4700000   0.99267892   -3.4688943      1728000    770.71872        23500         2251 
 4710000    1.0230113   -3.6194474      1728000    772.47571        23550         2253 
 4720000   0.95322586   -3.5954353      1728000     774.2668        23600         2253 
 4730000    1.0109947    -3.573061      1728000     775.9937        23650         2254 
 4740000    1.0029833   -3.5661338      1728000    777.88189        23700         2255 
 4750000    1.0070404   -3.4316502      1728000    779.61483        23750         2258 
 4760000    1.0359631   -3.5181893      1728000    781.40144        23800         2259 
 4770000   0.99467487   -3.5255105      1728000    783.17762        23850         2259 
 4780000    0.9685881   -3.5752893      1728000    784.94289        23900         2259 
 4790000   0.98104102    -3.521786      1728000    786.74627        23950         2259 
 4800000   0.99585671   -3.5464048      1728000    788.57241        24000         2261 
 4810000   0.98950828   -3.5461775      1728000    790.39259        24050         2261 
 4820000   0.97364685   -3.5931656      1728000    792.23017        24100         2261 
 4830000   0.97379386    -3.548584      1728000    794.01591        24150         2262 
 4840000    1.0399817   -3.5595833      1728000    795.74228        24200         2265 
 4850000    1.0136653   -3.4923088      1728000    797.46059        24250         2265 
 4860000   0.98544291   -3.4454838      1728000    799.20831        24300         2267 
 4870000    1.0018255   -3.5245009      1728000       801.03        24350         2267 
 4880000    1.0188936   -3.5220502      1728000    802.83015        24400         2267 
 4890000   0.98482059   -3.5119357      1728000     804.5647        24450         2267 
 4900000    1.0328215   -3.4875238      1728000    806.32149        24500         2269 
 4910000   0.96571379   -3.5945491      1728000    808.11853        24550         2271 
 4920000   0.97402965   -3.4445204      1728000    809.92593        24600         2273 
 4930000    1.0131445    -3.588415      1728000     811.7064        24650         2273 
 4940000    1.0429435   -3.6686087      1728000    813.49555        24700         2274 
 4950000    1.0309479   -3.6182599      1728000    815.31669        24750         2277 
 4960000    1.0091364   -3.3682485      1728000    817.10985        24800         2279 
 4970000    0.9495023   -3.4719033      1728000    818.81708        24850         2283 
 4980000   0.99096617   -3.5559286      1728000    820.53666        24900         2284 
 4990000   0.96800269   -3.4832242      1728000     822.3326        24950         2285 
 5000000     1.072323   -3.4516755      1728000    824.16925        25000         2286 
 5010000    1.0176245   -3.5178367      1728000    825.89988        25050         2287 
 5020000    1.0016253   -3.5637295      1728000    827.63948        25100         2291 
 5030000   0.96183177    -3.461097      1728000    829.41163        25150         2291 
 5040000     1.005729   -3.4978253      1728000    831.17964        25200         2291 
 5050000    1.0033052   -3.5604445      1728000    832.91844        25250         2294 
 5060000   0.96932123    -3.666699      1728000    834.66438        25300         2295 
 5070000    1.0367295   -3.5545526      1728000    836.40578        25350         2297 
 5080000   0.93196797    -3.670336      1728000    838.14164        25400         2298 
 5090000   0.97343979   -3.4890702      1728000    839.86659        25450         2299 
 5100000    1.0174543   -3.6410042      1728000    841.60667        25500         2300 
 5110000   0.98644398    -3.461738      1728000    843.35665        25550         2301 
 5120000    1.0073848    -3.510626      1728000    845.07165        25600         2305 
 5130000    1.0157166   -3.6047311      1728000    846.79446        25650         2307 
 5140000   0.94809395   -3.5561401      1728000    848.62928        25700         2307 
 5150000   0.96150301   -3.5847545      1728000    850.47075        25750         2307 
 5160000    1.0535521   -3.5570763      1728000    852.32685        25800         2310 
 5170000   0.97511397   -3.5141302      1728000    854.19713        25850         2310 
 5180000   0.99386018   -3.4486299      1728000    856.14912        25900         2314 
 5190000    1.0772347   -3.4557118      1728000    857.91546        25950         2315 
 5200000   0.96792472   -3.5222829      1728000    859.66157        26000         2316 
 5210000   0.99432511   -3.5824507      1728000     861.4887        26050         2319 
 5220000    0.9776616   -3.4864165      1728000    863.26242        26100         2322 
 5230000   0.99534199   -3.4983446      1728000    865.01799        26150         2327 
 5240000   0.99189707   -3.5398588      1728000    866.98496        26200         2328 
 5250000    1.0256143   -3.3937665      1728000    868.87701        26250         2331 
 5260000    1.0468837   -3.4680796      1728000    870.69215        26300         2333 
 5270000     1.018387   -3.3248573      1728000    872.66513        26350         2335 
 5280000   0.93608843   -3.5715218      1728000    874.51923        26400         2337 
 5290000    1.0059956   -3.6226261      1728000    876.34136        26450         2339 
 5300000    1.0503215   -3.5951852      1728000    878.15252        26500         2342 
 5310000    1.0437575   -3.5818298      1728000    879.95068        26550         2342 
 5320000    1.0402528   -3.6351387      1728000    881.74427        26600         2343 
 5330000    1.0723335   -3.6340866      1728000    883.51244        26650         2344 
 5340000    0.9829188   -3.6570401      1728000    885.32458        26700         2346 
 5350000   0.99683572   -3.3919154      1728000    887.07182        26750         2348 
 5360000    1.0038804   -3.3862137      1728000    888.88443        26800         2350 
 5370000   0.92658247   -3.4412362      1728000    890.69316        26850         2353 
 5380000    1.0311543   -3.5157957      1728000    892.49333        26900         2356 
 5390000   0.99015419   -3.5534397      1728000    894.34136        26950         2357 
 5400000    1.0602549   -3.4842803      1728000    896.16649        27000         2358 
 5410000   0.95123694    -3.538421      1728000    897.99749        27050         2360 
 5420000    1.0237567   -3.4491166      1728000    899.86673        27100         2360 
 5430000    1.0470545    -3.701529      1728000     901.7199        27150         2363 
 5440000   0.98287196   -3.5805226      1728000    903.53389        27200         2365 
 5450000    1.0037353   -3.3376489      1728000    905.35804        27250         2367 
 5460000   0.95893296   -3.5262622      1728000    907.23611        27300         2368 
 5470000    1.0379979    -3.526773      1728000    909.10613        27350         2368 
 5480000   0.95119119   -3.5603564      1728000    910.94423        27400         2369 
 5490000    1.0107246   -3.4894828      1728000    912.84828        27450         2370 
 5500000    1.0194431    -3.465961      1728000    914.73734        27500         2372 
 5510000     1.037286   -3.5627249      1728000    916.68159        27550         2372 
 5520000   0.95525368    -3.523321      1728000    918.55167        27600         2375 
 5530000   0.97060235   -3.5229934      1728000     920.3713        27650         2377 
 5540000    0.9866211    -3.562499      1728000    922.22045        27700         2378 
 5550000   0.97910597   -3.5396656      1728000    924.02069        27750         2381 
 5560000    1.0398179   -3.4941939      1728000    925.82394        27800         2384 
 5570000    1.0215791   -3.5208548      1728000    927.77194        27850         2385 
 5580000    0.9719815   -3.3925201      1728000    929.75291        27900         2387 
 5590000   0.96525461   -3.5807939      1728000    931.64897        27950         2389 
 5600000   0.90719765   -3.5345176      1728000       933.57        28000         2389 
 5610000    1.0093293   -3.5034702      1728000    935.49603        28050         2390 
 5620000    1.0126661   -3.4938468      1728000    937.32416        28100         2390 
 5630000    1.0291351   -3.4087874      1728000     939.2452        28150         2391 
 5640000   0.97050047   -3.4664249      1728000    941.04835        28200         2391 
 5650000   0.97495956    -3.348648      1728000    942.83958        28250         2391 
 5660000   0.97901184   -3.5839679      1728000    944.62876        28300         2392 
 5670000   0.93461277   -3.6676136      1728000    946.50483        28350         2395 
 5680000    1.0152704   -3.6180512      1728000    948.42887        28400         2397 
 5690000    1.0327669   -3.3651437      1728000      950.235        28450         2400 
 5700000   0.96894049   -3.4965026      1728000    952.11408        28500         2402 
 5710000   0.95632758     -3.44423      1728000    953.91823        28550         2403 
 5720000   0.97393414    -3.369669      1728000    955.73238        28600         2405 
 5730000    1.0351971   -3.5346033      1728000    957.51554        28650         2406 
 5740000    1.0035167    -3.473957      1728000    959.31571        28700         2407 
 5750000     1.015051   -3.5662419      1728000    961.10187        28750         2408 
 5760000   0.99460829   -3.4340137      1728000    962.91401        28800         2410 
 5770000   0.95999516   -3.5106609      1728000    964.77011        28850         2411 
 5780000    1.0574602   -3.4863392      1728000    966.55328        28900         2412 
 5790000   0.98234123   -3.6577389      1728000    968.35943        28950         2413 
 5800000   0.99420815   -3.5257918      1728000    970.20654        29000         2416 
 5810000    1.0407582   -3.5535418      1728000    971.99471        29050         2417 
 5820000   0.96671562   -3.5661497      1728000    973.84181        29100         2418 
 5830000    1.0243158   -3.6484275      1728000    975.67493        29150         2418 
 5840000    1.0086699   -3.5335363      1728000    977.60896        29200         2419 
 5850000    0.9867375     -3.55891      1728000    979.40911        29250         2419 
 5860000    1.0485105   -3.5165159      1728000     981.1992        29300         2420 
 5870000    0.9780918   -3.5832881      1728000    983.05132        29350         2420 
 5880000   0.98891157   -3.6211692      1728000    984.87147        29400         2420 
 5890000    1.0183854   -3.7049845      1728000    986.70676        29450         2421 
 5900000   0.98372369   -3.5793999      1728000     988.4582        29500         2422 
 5910000      1.03122   -3.5811226      1728000    990.19044        29550         2423 
 5920000   0.92287269   -3.5935514      1728000     991.9185        29600         2424 
 5930000   0.99027677   -3.5622752      1728000    993.68034        29650         2426 
 5940000    1.0531957   -3.6036563      1728000    995.42521        29700         2426 
 5950000   0.90968024   -3.6081679      1728000    997.19331        29750         2426 
 5960000     1.041639   -3.5639208      1728000    998.99438        29800         2429 
 5970000     1.007974   -3.5241206      1728000    1000.7274        29850         2431 
 5980000   0.99741991   -3.4632623      1728000    1002.6016        29900         2433 
 5990000   0.98462385   -3.5350642      1728000    1004.4957        29950         2434 
 6000000   0.98969276   -3.5156414      1728000    1006.3368        30000         2437 
 6010000    1.0020782   -3.6817697      1728000    1008.1439        30050         2438 
 6020000   0.99505962   -3.6240898      1728000    1009.9951        30100         2440 
 6030000    1.0118779    -3.642289      1728000    1011.8441        30150         2441 
 6040000    1.0071497   -3.5552514      1728000    1013.6637        30200         2442 
 6050000   0.99921183   -3.6253198      1728000    1015.5008        30250         2443 
 6060000   0.96419708   -3.7055874      1728000    1017.3389        30300         2443 
 6070000     1.082074   -3.6425685      1728000     1019.162        30350         2445 
 6080000    1.0728285   -3.6169665      1728000    1020.9652        30400         2446 
 6090000    1.0014308   -3.5746854      1728000    1022.7534        30450         2447 
 6100000    1.0270317   -3.6756761      1728000    1024.6344        30500         2447 
 6110000    0.9824115   -3.6448862      1728000    1026.4116        30550         2447 
 6120000     1.000862   -3.5929672      1728000    1028.2267        30600         2447 
 6130000    1.0764183   -3.5414984      1728000    1030.0299        30650         2448 
 6140000   0.99240141   -3.5230745      1728000     1031.875        30700         2449 
 6150000   0.97491222   -3.6294879      1728000    1033.6981        30750         2449 
 6160000    1.0471317   -3.6309133      1728000    1035.4953        30800         2450 
 6170000    1.0599797   -3.6862135      1728000    1037.3494        30850         2451 
 6180000   0.96624334   -3.6595471      1728000    1039.1895        30900         2452 
 6190000   0.95574561    -3.584211      1728000    1040.9787        30950         2454 
 6200000    1.0319844   -3.5724311      1728000    1042.7848        31000         2456 
 6210000    1.0263724   -3.5995126      1728000    1044.6359        31050         2457 
 6220000    1.0150363   -3.5591554      1728000    1046.4421        31100         2459 
 6230000   0.98759875    -3.594869      1728000    1048.2294        31150         2462 
 6240000   0.95941963   -3.6638009      1728000    1050.0856        31200         2463 
 6250000   0.97178172   -3.7453016      1728000    1051.9297        31250         2464 
 6260000   0.98293124   -3.6101216      1728000    1053.8157        31300         2465 
 6270000    1.0073846   -3.5694831      1728000    1055.6448        31350         2466 
 6280000   0.99440145   -3.7251874      1728000    1057.5359        31400         2467 
 6290000   0.96510635    -3.673682      1728000     1059.395        31450         2467 
 6300000   0.99132013   -3.6755515      1728000    1061.2311        31500         2467 
 6310000    1.0025463   -3.5514598      1728000    1063.0163        31550         2468 
 6320000    1.0564015   -3.6016763      1728000    1064.7546        31600         2470 
 6330000    1.0155509   -3.6100322      1728000    1066.4973        31650         2471 
 6340000   0.98263961   -3.5575301      1728000    1068.2358        31700         2471 
 6350000   0.98009743   -3.7264461      1728000    1069.9922        31750         2472 
 6360000   0.94609859    -3.573843      1728000    1071.7372        31800         2473 
 6370000    1.0362221   -3.6617072      1728000    1073.4673        31850         2474 
 6380000    1.0174127   -3.5499348      1728000    1075.2242        31900         2476 
 6390000   0.92616237    -3.554152      1728000    1076.9553        31950         2477 
 6400000   0.99691883   -3.5248781      1728000     1078.698        32000         2478 
 6410000    1.0586655   -3.7478905      1728000    1080.4613        32050         2480 
 6420000   0.96507016   -3.6602407      1728000    1082.2292        32100         2482 
 6430000    1.0128519     -3.77244      1728000    1084.0523        32150         2482 
 6440000   0.92673101   -3.5254563      1728000    1085.8945        32200         2483 
 6450000   0.97377498   -3.5999284      1728000    1087.7856        32250         2484 
 6460000     1.017079   -3.5791614      1728000    1089.6566        32300         2484 
 6470000    1.0118277   -3.6577945      1728000    1091.4848        32350         2488 
 6480000     1.033235   -3.5954352      1728000     1093.258        32400         2490 
 6490000    1.0000149   -3.5221411      1728000    1095.0743        32450         2491 
 6500000    1.0152657   -3.6544265      1728000    1096.9669        32500         2492 
 6510000    1.0783379    -3.719141      1728000    1098.8445        32550         2493 
 6520000    1.0467196   -3.7151684      1728000    1100.6996        32600         2493 
 6530000   0.98516004   -3.6687086      1728000    1102.5071        32650         2493 
 6540000    1.0353292   -3.7501204      1728000    1104.3433        32700         2493 
 6550000    1.0473255   -3.6426793      1728000    1106.2064        32750         2493 
 6560000    1.0078986   -3.6415216      1728000    1108.1035        32800         2495 
 6570000   0.94540323   -3.7835888      1728000     1109.883        32850         2495 
 6580000   0.96438201   -3.6556416      1728000    1111.6838        32900         2496 
 6590000   0.95544644   -3.6997825      1728000    1113.5108        32950         2496 
 6600000    1.0238997   -3.6630915      1728000    1115.3601        33000         2498 
 6610000    1.0535868   -3.6076785      1728000    1117.1952        33050         2498 
 6620000    1.0693886   -3.5215454      1728000    1118.9908        33100         2498 
 6630000    1.0408316    -3.685294      1728000    1120.8237        33150         2498 
 6640000    1.0322478   -3.6993622      1728000    1122.6159        33200         2501 
 6650000   0.99225515   -3.7071366      1728000    1124.4192        33250         2501 
 6660000    1.0674464   -3.5588715      1728000    1126.2075        33300         2502 
 6670000   0.94602769   -3.5202791      1728000     1127.963        33350         2504 
 6680000   0.96826995   -3.5660492      1728000    1129.7404        33400         2505 
 6690000    1.0010007   -3.5686671      1728000    1131.5006        33450         2506 
 6700000   0.96790899   -3.5713935      1728000     1133.323        33500         2506 
 6710000    1.0362784   -3.6128387      1728000     1135.148        33550         2506 
 6720000    1.0794644    -3.605463      1728000    1137.0132        33600         2507 
 6730000   0.96085664   -3.6545309      1728000    1138.7865        33650         2508 
 6740000    1.0052475   -3.4828446      1728000    1140.5162        33700         2511 
 6750000    1.0433107    -3.564392      1728000    1142.2887        33750         2513 
 6760000   0.93533804   -3.5277907      1728000    1144.0172        33800         2515 
 6770000    0.9840281    -3.577733      1728000    1145.7932        33850         2515 
 6780000    1.0300482   -3.6392323      1728000    1147.5722        33900         2515 
 6790000   0.96302692   -3.5167859      1728000    1149.4129        33950         2518 
 6800000   0.93172806     -3.57978      1728000    1151.1766        34000         2519 
 6810000   0.89523526   -3.6205812      1728000    1152.9459        34050         2521 
 6820000   0.98262871    -3.685932      1728000     1154.707        34100         2521 
 6830000   0.97412069   -3.6486739      1728000    1156.4731        34150         2523 
 6840000    1.0134658   -3.5665761      1728000    1158.2361        34200         2524 
 6850000    1.0490924   -3.6712061      1728000    1160.0468        34250         2527 
 6860000   0.99740176   -3.6359049      1728000    1161.8456        34300         2527 
 6870000     1.015654   -3.4809151      1728000    1163.6878        34350         2531 
 6880000    1.0612238   -3.4397849      1728000    1165.4849        34400         2532 
 6890000   0.91893614   -3.5301451      1728000     1167.308        34450         2534 
 6900000    1.0317913   -3.6264504      1728000     1169.201        34500         2534 
 6910000   0.96247001   -3.5091354      1728000    1171.0331        34550         2534 
 6920000    1.0155152   -3.5033414      1728000    1172.7876        34600         2535 
 6930000   0.99973962   -3.4080239      1728000     1174.535        34650         2536 
 6940000    1.0500521   -3.6391909      1728000    1176.2646        34700         2538 
 6950000    1.0239321   -3.5428478      1728000    1178.0489        34750         2538 
 6960000   0.99042546   -3.4719368      1728000    1179.8251        34800         2539 
 6970000    1.0427284   -3.5119857      1728000    1181.6233        34850         2541 
 6980000    1.0130377   -3.5184792      1728000    1183.4126        34900         2544 
 6990000   0.97121042    -3.511466      1728000    1185.2039        34950         2544 
 7000000   0.97600895   -3.4124551      1728000    1187.0612        35000         2547 
 7010000    1.0077537   -3.5225695      1728000    1188.8556        35050         2548 
 7020000     1.010914   -3.6362429      1728000    1190.6398        35100         2551 
 7030000    1.0108453   -3.5852905      1728000     1192.387        35150         2554 
 7040000    1.0148968   -3.6004392      1728000    1194.1592        35200         2557 
 7050000   0.99573837   -3.5144225      1728000     1195.946        35250         2558 
 7060000    1.0222755     -3.57915      1728000    1197.6607        35300         2560 
 7070000     1.007031   -3.5190524      1728000    1199.4171        35350         2564 
 7080000    1.0276432   -3.6425289      1728000    1201.1537        35400         2565 
 7090000    1.0320497   -3.5900152      1728000    1202.9297        35450         2565 
 7100000    1.0422419   -3.5411214      1728000     1204.715        35500         2565 
 7110000    1.0322911    -3.508837      1728000    1206.5162        35550         2568 
 7120000   0.98030046   -3.6419921      1728000    1208.2758        35600         2571 
 7130000    1.0248114   -3.4154186      1728000     1210.039        35650         2573 
 7140000    1.0023452   -3.4753946      1728000    1211.7964        35700         2573 
 7150000   0.92065205   -3.4958507      1728000     1213.535        35750         2576 
 7160000   0.97255204   -3.6446921      1728000    1215.3951        35800         2579 
 7170000   0.99796954    -3.538233      1728000    1217.1764        35850         2581 
 7180000    1.0266224   -3.5844218      1728000    1218.9546        35900         2581 
 7190000    1.0056149   -3.6423909      1728000    1220.7515        35950         2585 
 7200000     1.060835   -3.6355588      1728000    1222.5349        36000         2585 
 7210000   0.98465542   -3.6299836      1728000    1224.3841        36050         2588 
 7220000    0.9883199   -3.6238633      1728000    1226.1682        36100         2589 
 7230000    1.0023176    -3.567682      1728000    1227.9181        36150         2590 
 7240000    1.0080334   -3.5913097      1728000     1229.658        36200         2591 
 7250000    1.0374852   -3.4321332      1728000    1231.3791        36250         2592 
 7260000   0.94375963   -3.6145315      1728000    1233.1878        36300         2594 
 7270000    1.0457533   -3.5613525      1728000    1234.9509        36350         2594 
 7280000    0.9977598   -3.5225309      1728000    1236.7019        36400         2595 
 7290000    1.0176781   -3.6304817      1728000    1238.4302        36450         2597 
 7300000    1.0505973   -3.6819368      1728000    1240.2309        36500         2598 
 7310000   0.98746311   -3.3955061      1728000    1242.0573        36550         2598 
 7320000   0.97312546    -3.584532      1728000    1243.8105        36600         2598 
 7330000     1.099917   -3.6362079      1728000    1245.5419        36650         2599 
 7340000   0.93968614   -3.5195266      1728000    1247.3199        36700         2600 
 7350000   0.97242357   -3.6690859      1728000    1249.1002        36750         2601 
 7360000    1.0672478   -3.5857434      1728000    1250.8339        36800         2602 
 7370000    1.0007041   -3.5876151      1728000     1252.603        36850         2604 
 7380000   0.96059736   -3.4896931      1728000     1254.459        36900         2605 
 7390000   0.99854008   -3.6162117      1728000    1256.2022        36950         2606 
 7400000   0.95846803    -3.711394      1728000    1257.9358        37000         2610 
 7410000   0.99476846   -3.5756769      1728000      1259.72        37050         2612 
 7420000    1.0263243   -3.6249121      1728000    1261.4709        37100         2613 
 7430000   0.96984284   -3.6508054      1728000    1263.4409        37150         2614 
 7440000    1.0467154   -3.5900461      1728000    1265.2231        37200         2615 
 7450000    1.0294736   -3.6319754      1728000    1267.0256        37250         2615 
 7460000    1.0174102   -3.7241146      1728000    1268.8075        37300         2616 
 7470000   0.93918644   -3.3940884      1728000    1270.6369        37350         2616 
 7480000    1.0158642   -3.5637249      1728000    1272.3811        37400         2618 
 7490000    1.0044516   -3.5268436      1728000    1274.1773        37450         2619 
 7500000    1.0045194   -3.6733966      1728000    1275.9267        37500         2621 
 7510000    1.0171455   -3.6800606      1728000     1277.684        37550         2623 
 7520000   0.98972808   -3.6126381      1728000    1279.4672        37600         2626 
 7530000    1.0217398   -3.4917271      1728000    1281.2128        37650         2628 
 7540000    1.0013326   -3.5774036      1728000    1283.0545        37700         2629 
 7550000   0.96776019   -3.7145747      1728000    1284.8567        37750         2630 
 7560000    0.9554125     -3.60841      1728000     1286.653        37800         2632 
 7570000   0.90879478    -3.523129      1728000      1288.45        37850         2632 
 7580000   0.92696861   -3.5008911      1728000     1290.182        37900         2633 
 7590000      1.00955   -3.6706475      1728000     1291.917        37950         2633 
 7600000   0.96401881   -3.5771674      1728000    1293.6726        38000         2634 
 7610000   0.96541879   -3.5669999      1728000    1295.4398        38050         2635 
 7620000   0.97863747   -3.7205208      1728000     1297.224        38100         2637 
 7630000   0.93170629   -3.6474851      1728000    1299.0249        38150         2638 
 7640000    1.0023325   -3.4709421      1728000    1300.7821        38200         2641 
 7650000     1.055838   -3.4902222      1728000    1302.5813        38250         2642 
 7660000    0.9915803   -3.5442081      1728000    1304.3186        38300         2644 
 7670000    1.0025638   -3.5881368      1728000    1306.0463        38350         2644 
 7680000    1.0010651   -3.5004319      1728000    1307.8488        38400         2644 
 7690000    0.9961869   -3.6649621      1728000    1309.6576        38450         2646 
 7700000     1.093176    -3.678287      1728000    1311.5386        38500         2646 
 7710000    1.0132808   -3.5612732      1728000    1313.3948        38550         2647 
 7720000    1.0872937   -3.6245186      1728000    1315.1385        38600         2649 
[...]
47970000    1.0465091   -3.7653213      1728000    8763.2162       239850         6674 
47980000    1.0839522   -3.8377989      1728000    8765.0933       239900         6675 
47990000   0.96226391   -3.7144145      1728000    8766.9864       239950         6675 
48000000   0.96986394   -3.7815514      1728000    8768.9064       240000         6676 
48010000    0.9488773   -3.7321637      1728000    8770.7895       240050         6677 
48020000   0.99468944   -3.7474303      1728000    8772.6316       240100         6677 
48030000   0.98118689   -3.7370268      1728000    8774.5726       240150         6677 
48040000   0.95500529   -3.8076085      1728000    8776.5416       240200         6677 
48050000    1.0499048   -3.7679388      1728000    8778.4846       240250         6679 
48060000    1.0108383   -3.8123514      1728000    8780.3737       240300         6680 
48070000   0.95741997   -3.7395264      1728000    8782.2449       240350         6684 
48080000   0.96662469   -3.8276616      1728000     8784.125       240400         6685 
48090000    1.0271564   -3.7851768      1728000    8785.9616       240450         6686 
48100000    1.0633099   -3.7904921      1728000    8787.8377       240500         6688 
48110000    1.0453461   -3.8322888      1728000    8789.7378       240550         6688 
48120000    1.0486058   -3.7980649      1728000    8791.5923       240600         6689 
48130000   0.97052781   -3.7074477      1728000    8793.4248       240650         6691 
48140000   0.98229802   -3.6549211      1728000    8795.2858       240700         6691 
48150000    1.0290449   -3.8578573      1728000    8797.2248       240750         6693 
48160000    1.0308118   -3.8256512      1728000    8799.1016       240800         6693 
48170000    1.0379493   -3.8273652      1728000    8800.9427       240850         6693 
48180000   0.97627084   -3.6592182      1728000     8802.841       240900         6693 
48190000    1.0266581   -3.9512086      1728000    8804.7641       240950         6693 
48200000    1.0187806   -3.7782687      1728000    8806.6423       241000         6693 
48210000   0.96351777   -3.6750743      1728000    8808.4715       241050         6693 
48220000    1.0030766   -3.8907567      1728000    8810.3315       241100         6693 
48230000   0.99459211   -3.8395333      1728000    8812.2176       241150         6693 
48240000   0.98446069   -3.7037553      1728000    8814.0816       241200         6693 
48250000   0.98859772   -3.9093326      1728000    8815.9466       241250         6693 
48260000    1.0067005   -3.9606943      1728000    8817.7845       241300         6693 
48270000    1.0839691   -3.6811406      1728000    8819.6745       241350         6694 
48280000   0.99421384   -3.7833591      1728000    8821.5365       241400         6694 
48290000   0.98020201   -3.8630964      1728000    8823.4355       241450         6694 
48300000   0.98768954   -3.7708909      1728000    8825.3865       241500         6696 
48310000    1.0065671   -3.8052097      1728000    8827.2622       241550         6697 
48320000    1.0255524   -3.7466317      1728000    8829.1227       241600         6697 
48330000   0.98442514    -3.808693      1728000    8830.9842       241650         6697 
48340000    1.0318673   -3.6665099      1728000    8832.8484       241700         6700 
48350000   0.98180751   -3.7586074      1728000    8834.7056       241750         6700 
48360000   0.99470244    -3.822687      1728000     8836.578       241800         6700 
48370000   0.93177974   -3.7347049      1728000    8838.4671       241850         6704 
48380000   0.98198099   -3.9691571      1728000    8840.3195       241900         6705 
48390000   0.99138947   -3.8468099      1728000    8842.1716       241950         6705 
48400000   0.94881907   -3.7855989      1728000    8844.0437       242000         6705 
48410000   0.99661277   -3.7727626      1728000    8845.8817       242050         6706 
48420000   0.99008943   -3.7743271      1728000    8847.7245       242100         6707 
48430000   0.97808744   -3.8725286      1728000    8849.6084       242150         6707 
48440000   0.99668068   -3.7522351      1728000    8851.4371       242200         6708 
48450000    1.0176798   -3.7647561      1728000    8853.2893       242250         6708 
48460000   0.96634792   -3.8545279      1728000    8855.2008       242300         6708 
48470000    1.0116451   -3.6865823      1728000    8857.0802       242350         6708 
48480000   0.99377275   -3.7517099      1728000    8858.9532       242400         6708 
48490000   0.99835324     -3.87277      1728000    8860.8652       242450         6708 
48500000    1.0383461   -3.8622404      1728000    8862.7773       242500         6708 
48510000   0.97756802   -3.7083696      1728000    8864.6777       242550         6709 
48520000    1.0216831   -3.7607535      1728000    8866.5749       242600         6711 
48530000    1.0134074   -3.8226699      1728000     8868.462       242650         6711 
48540000    1.0522829   -3.6670298      1728000     8870.387       242700         6713 
48550000    1.0172984   -3.9925364      1728000    8872.2797       242750         6715 
48560000    1.0195456   -3.7657523      1728000    8874.1389       242800         6717 
48570000    1.0418216   -3.9175769      1728000    8876.0448       242850         6719 
48580000    1.0555333   -3.7359697      1728000    8877.8844       242900         6720 
48590000    1.0049681   -3.8038335      1728000    8880.0859       242950         6721 
48600000   0.94447884   -3.8559577      1728000    8881.9907       243000         6723 
48610000    1.0117848   -3.7698512      1728000    8883.8571       243050         6727 
48620000    1.0018325   -3.7788563      1728000    8885.7291       243100         6729 
48630000   0.93661844   -3.7215548      1728000    8887.5904       243150         6730 
48640000     1.079158   -3.6973503      1728000    8889.4624       243200         6730 
48650000    1.0014508   -3.6605272      1728000    8891.3555       243250         6733 
48660000    1.0135859   -3.8994956      1728000    8893.2279       243300         6735 
48670000    1.0191878   -3.9347007      1728000    8895.1346       243350         6736 
48680000    1.0468193    -3.820793      1728000    8896.9882       243400         6737 
48690000    1.0032862    -3.824446      1728000    8898.8512       243450         6737 
48700000   0.99093197   -3.7879751      1728000    8900.6843       243500         6737 
48710000   0.96081154   -3.8248038      1728000    8902.5673       243550         6738 
48720000     1.062105   -3.8701803      1728000    8904.4684       243600         6738 
48730000   0.99893583   -3.9647234      1728000    8906.3575       243650         6740 
48740000   0.97520631   -3.8203894      1728000    8908.2516       243700         6740 
48750000   0.94688868   -3.8722762      1728000    8910.1327       243750         6740 
48760000   0.97754797   -3.8574808      1728000    8912.0077       243800         6740 
48770000    1.0438343   -3.9302952      1728000    8913.9038       243850         6740 
48780000    1.0528387   -3.7404179      1728000    8915.7769       243900         6740 
48790000   0.99650357   -3.5757578      1728000    8917.6982       243950         6741 
48800000   0.99632302   -3.8782544      1728000    8919.6405       244000         6742 
48810000   0.97723468   -3.6722337      1728000    8921.5086       244050         6743 
48820000   0.91616145   -3.8336593      1728000    8923.3957       244100         6744 
48830000    1.1050278   -3.7723544      1728000    8925.2974       244150         6745 
48840000   0.99899878   -3.7929286      1728000    8927.1668       244200         6745 
48850000    1.0341276    -3.695247      1728000    8929.0529       244250         6747 
48860000   0.98868754   -3.7345531      1728000    8930.9652       244300         6747 
48870000   0.98246488   -3.8288654      1728000    8932.8604       244350         6747 
48880000    1.0496806    -3.908518      1728000    8934.7155       244400         6747 
48890000    1.0096227   -3.7434988      1728000       8936.6       244450         6749 
48900000    1.0222077   -3.8898511      1728000    8938.4881       244500         6749 
48910000    1.0282168   -3.7308961      1728000    8940.3627       244550         6750 
48920000   0.89122359   -3.8911935      1728000    8942.2299       244600         6751 
48930000    1.0504089   -3.6711661      1728000    8944.0764       244650         6752 
48940000   0.91677019   -3.7802333      1728000    8945.9746       244700         6754 
48950000   0.95815873   -3.8426938      1728000    8947.9193       244750         6755 
48960000   0.92943814   -3.8843224      1728000    8949.8073       244800         6755 
48970000    1.0013961   -3.8072161      1728000    8951.7293       244850         6755 
48980000   0.98770594   -3.7972427      1728000    8953.6533       244900         6757 
48990000   0.96487992   -3.6951896      1728000    8955.5514       244950         6758 
49000000    1.0278186   -3.7678492      1728000    8957.5014       245000         6758 
49010000   0.93009225   -3.8348356      1728000    8959.4824       245050         6760 
49020000     1.053809    -3.873738      1728000    8961.4563       245100         6760 
49030000     1.029798   -3.7604786      1728000    8963.3944       245150         6761 
49040000    1.0468904   -3.8233828      1728000    8965.3124       245200         6762 
49050000   0.98021558   -3.8245093      1728000    8967.2334       245250         6764 
49060000   0.99107095   -3.7990477      1728000    8969.1754       245300         6764 
49070000    1.0190167   -3.8581081      1728000    8971.0342       245350         6765 
49080000    1.0180581   -3.7378453      1728000    8972.9673       245400         6766 
49090000    1.0102956   -3.6235356      1728000    8974.8903       245450         6767 
49100000   0.97123083   -3.8803778      1728000    8976.8143       245500         6768 
49110000   0.99153516   -3.8314628      1728000    8978.7154       245550         6769 
49120000   0.96666398   -3.6150499      1728000    8980.5776       245600         6769 
49130000    1.0273123   -3.8367986      1728000    8982.4336       245650         6770 
49140000   0.97970063   -3.8188166      1728000    8984.3341       245700         6770 
49150000   0.98561975   -3.8309281      1728000    8986.1854       245750         6770 
49160000   0.99931555   -3.7469267      1728000    8988.0387       245800         6771 
49170000   0.99945622   -3.8642229      1728000    8989.9927       245850         6771 
49180000   0.90651056   -3.9019532      1728000    8991.8819       245900         6771 
49190000    1.0502175    -3.695373      1728000    8993.7523       245950         6771 
49200000   0.99492897    -3.812629      1728000    8995.6062       246000         6772 
49210000   0.98841608   -3.7562271      1728000    8997.5163       246050         6775 
49220000   0.98694089   -3.7424008      1728000    8999.4053       246100         6776 
49230000   0.96395246   -3.7701207      1728000    9001.3318       246150         6778 
49240000    1.0060899   -3.8322595      1728000    9003.2488       246200         6779 
49250000   0.99357972    -3.791104      1728000    9005.1458       246250         6783 
49260000    1.0214511   -3.7327253      1728000    9007.0211       246300         6783 
49270000   0.98868436   -3.9209129      1728000    9008.9964       246350         6783 
49280000     1.003352   -3.7256143      1728000    9010.8377       246400         6785 
49290000    1.0080818   -3.7888224      1728000     9012.677       246450         6787 
49300000    1.0387332   -3.6973139      1728000    9014.5482       246500         6788 
49310000    1.0753822   -3.7770555      1728000    9016.3801       246550         6789 
49320000    1.0334869   -3.7722308      1728000    9018.2672       246600         6789 
49330000    1.0525376   -3.8113161      1728000    9020.1634       246650         6790 
49340000   0.99266191   -3.8364074      1728000    9022.0452       246700         6791 
49350000    1.0414374   -3.8691246      1728000    9023.9233       246750         6792 
49360000   0.96742839   -3.8537643      1728000     9025.812       246800         6792 
49370000   0.99210828    -3.916854      1728000    9027.7157       246850         6792 
49380000    1.0427479    -3.743484      1728000    9029.6547       246900         6792 
49390000    1.0139631   -3.8496164      1728000    9031.8424       246950         6793 
49400000    1.0105736   -3.8044358      1728000    9033.8244       247000         6793 
49410000   0.94980876   -3.6722437      1728000    9035.7454       247050         6796 
49420000    1.0118405   -3.7970501      1728000    9037.6625       247100         6796 
49430000   0.96670823   -3.8421043      1728000    9039.5775       247150         6797 
49440000   0.98898257   -3.6620187      1728000    9041.5774       247200         6797 
49450000    1.0553301   -3.8468492      1728000    9043.4269       247250         6799 
49460000    1.0114786   -3.8877399      1728000    9045.2823       247300         6799 
49470000    1.0996499   -3.7927271      1728000    9047.1739       247350         6801 
49480000    1.0132708   -3.7849395      1728000    9049.0372       247400         6802 
49490000    1.0565303   -3.8554369      1728000    9050.9212       247450         6802 
49500000   0.95838868   -3.8685281      1728000     9052.824       247500         6803 
49510000    1.0072724    -3.854687      1728000    9054.7211       247550         6804 
49520000    1.0182617   -3.7384063      1728000    9056.6684       247600         6804 
49530000   0.97682765   -3.7259608      1728000    9058.5405       247650         6804 
49540000    1.0097147   -3.7005632      1728000    9060.4099       247700         6804 
49550000     1.026084   -3.8271002      1728000     9062.305       247750         6806 
49560000   0.99715874   -3.9414321      1728000    9064.2059       247800         6806 
49570000    1.0564952    -3.915322      1728000    9066.0921       247850         6807 
49580000    1.0456644    -3.794449      1728000    9067.9772       247900         6808 
49590000   0.97274609   -3.9097277      1728000    9069.8631       247950         6808 
49600000   0.88443875   -3.7772905      1728000    9071.7567       248000         6808 
49610000    1.0399097   -3.7776551      1728000    9073.6492       248050         6808 
49620000    1.0188493   -3.7988807      1728000    9075.4933       248100         6809 
49630000    1.0409961   -3.8515592      1728000    9077.4352       248150         6810 
49640000    1.0474277   -3.8432018      1728000    9079.3403       248200         6811 
49650000   0.96700023   -3.8310575      1728000    9081.2473       248250         6811 
49660000     1.053771   -3.9194385      1728000    9083.1094       248300         6813 
49670000    1.0258261   -3.8366985      1728000    9085.0432       248350         6814 
49680000     0.983228   -3.9499116      1728000    9086.9311       248400         6814 
49690000     1.020099   -3.7983664      1728000    9088.8312       248450         6815 
49700000    1.0106917    -3.839763      1728000    9090.7134       248500         6816 
49710000    1.0098283   -3.7541432      1728000    9092.5867       248550         6816 
49720000   0.97648315   -3.7585575      1728000    9094.4617       248600         6817 
49730000    1.0013292   -3.8247017      1728000    9096.3528       248650         6818 
49740000   0.99202473   -3.9766978      1728000    9098.2588       248700         6819 
49750000   0.96950434   -3.8804434      1728000    9100.1654       248750         6819 
49760000    1.0019221   -3.7900611      1728000    9102.1057       248800         6819 
49770000    1.0124798   -3.8305182      1728000    9103.9967       248850         6819 
49780000   0.96594441   -3.7862665      1728000    9105.8689       248900         6820 
49790000    1.0075737   -3.6535585      1728000     9107.766       248950         6821 
49800000   0.93434471   -3.8961983      1728000    9109.6794       249000         6822 
49810000    1.0679752   -3.7896512      1728000    9111.5314       249050         6823 
49820000   0.98959611   -3.8369874      1728000    9113.3712       249100         6823 
49830000    1.0426457   -3.8862531      1728000    9115.2679       249150         6825 
49840000   0.96368941   -3.6843898      1728000    9117.1719       249200         6825 
49850000    1.0052101   -3.8317052      1728000     9119.052       249250         6825 
49860000   0.98248011   -3.7641259      1728000    9120.9071       249300         6825 
49870000    1.0551434    -3.725526      1728000     9122.755       249350         6826 
49880000   0.99050637    -3.803667      1728000    9124.5959       249400         6827 
49890000    1.0369831   -3.8812032      1728000     9126.492       249450         6827 
49900000     1.028144   -3.7800097      1728000    9128.4237       249500         6828 
49910000    1.0152462   -3.7677844      1728000    9130.3478       249550         6829 
49920000    1.0802063   -3.7641798      1728000    9132.2618       249600         6831 
49930000   0.99213803   -3.8821521      1728000    9134.1429       249650         6832 
49940000   0.96316351   -3.8001336      1728000      9136.03       249700         6832 
49950000    1.0021882   -3.8413292      1728000    9137.9039       249750         6834 
49960000   0.98746252   -3.7862836      1728000    9139.7722       249800         6834 
49970000   0.95694867   -3.8390758      1728000    9141.6154       249850         6835 
49980000    0.9538598   -3.7894943      1728000    9143.5214       249900         6835 
49990000    1.0075433   -3.9033939      1728000    9145.3965       249950         6835 
50000000    1.0186432   -3.6991483      1728000    9147.2878       250000         6835 
Loop time of 9147.29 on 1 procs for 50000000 steps with 500 atoms

Performance: 4722710.358 tau/day, 5466.100 timesteps/s
99.3% CPU use with 1 MPI tasks x 1 OpenMP threads

MPI task timing breakdown:
Section |  min time  |  avg time  |  max time  |%varavg| %total
---------------------------------------------------------------
Pair    | 4668.8     | 4668.8     | 4668.8     |   0.0 | 51.04
Bond    | 1080.8     | 1080.8     | 1080.8     |   0.0 | 11.82
Neigh   | 1537       | 1537       | 1537       |   0.0 | 16.80
Comm    | 32.849     | 32.849     | 32.849     |   0.0 |  0.36
Output  | 16.982     | 16.982     | 16.982     |   0.0 |  0.19
Modify  | 1746.1     | 1746.1     | 1746.1     |   0.0 | 19.09
Other   |            | 64.72      |            |       |  0.71

Nlocal:    500 ave 500 max 500 min
Histogram: 1 0 0 0 0 0 0 0 0 0
Nghost:    0 ave 0 max 0 min
Histogram: 1 0 0 0 0 0 0 0 0 0
Neighs:    14316 ave 14316 max 14316 min
Histogram: 1 0 0 0 0 0 0 0 0 0

Total # of neighbors = 14316
Ave neighs/atom = 28.632
Ave special neighs/atom = 5.976
Neighbor list builds = 2528216
Dangerous builds = 0

################
## ULOOP    ####
################
clear
OMP_NUM_THREADS environment is not set. Defaulting to 1 thread. (../comm.cpp:87)
  using 1 OpenMP thread(s) per MPI task
variable rname delete
variable simname delete
variable folder delete
variable seed delete
variable E delete
variable RW delete
variable SimOutType delete
variable SimInType delete
variable jn delete
variable jf delete

next jbn
Increment via next: value 2 on partition 0
jump SELF #last line!!!

### If e.g. I run this on 10 partitions of 1 processor,
### and initialise the variable with 'uloop N'
### it will run 10 simulations with 'jobnumber' taking
### values 1-10. Then when a particular simulation finishes, the
### script will be run again with the next value of jobnumber,
### until N simulations have been run.
## SO ULOOP IS "SERIAL" BUT FOR SURE 10x1 PROCs ARE ALWAYS BUSY
Total wall time: 2:32:37
