LAMMPS (1 Feb 2019)
OMP_NUM_THREADS environment is not set. Defaulting to 1 thread. (../comm.cpp:87)
  using 1 OpenMP thread(s) per MPI task
####################################
####	ULOOP			####
####################################
variable jbn uloop 1  # run n simulations
variable startfrom equal 0
variable jn equal ${jbn}+${startfrom}
variable jn equal 1+${startfrom}
variable jn equal 1+0
print ${jn}
print 1
1
variable seed equal (${jn}+4)*51-2*${jbn}
variable seed equal (1+4)*51-2*${jbn}
variable seed equal (1+4)*51-2*1
variable seedr equal (${jn}+2)*22
variable seedr equal (1+2)*22

#
variable N equal 2000
timestep 0.01
variable Dt equal 100000
variable Temp equal 1.0
variable Norm equal 0.88585294441338
if "${jn} <= 2" then "variable E equal 1.1"
variable E equal 1.1
if "${jn} > 2 && ${jn} <= 4" then "variable E equal 1.5"
if "${jn} > 4 && ${jn} <= 6" then "variable E equal 2.0"
if "${jn} > 6 && ${jn} <= 8" then "variable E equal 2.5"
if "${jn} > 8 && ${jn} <= 10" then "variable E equal 3.0"
if "${jn} > 10 && ${jn} <= 12" then "variable E equal 3.5"
if "${jn} > 12 && ${jn} <= 14" then "variable E equal 4.0"
if "${jn} > 14 && ${jn} <= 16" then "variable E equal 4.5"
if "${jn} > 16 && ${jn} <= 18" then "variable E equal 5.0"

#
####################################
####	DEFINTIONS 	########
####################################
#
variable N equal 500
variable folder index RW_Dt${Dt}_E${E}
variable folder index RW_Dt100000_E${E}
variable folder index RW_Dt100000_E1.1
shell mkdir ${folder}
shell mkdir RW_Dt100000_E1.1
variable SimOutType index RW${jn}Dt${Dt}E${E}
variable SimOutType index RW1Dt${Dt}E${E}
variable SimOutType index RW1Dt100000E${E}
variable SimOutType index RW1Dt100000E1.1
variable rname index INIT/Poly.N${N}.dat
variable rname index INIT/Poly.N500.dat
variable simname index Poly.N${N}.${SimOutType}
variable simname index Poly.N500.${SimOutType}
variable simname index Poly.N500.RW1Dt100000E1.1
#
units lj
atom_style angle
boundary        p p p
neighbor 1.3 bin
neigh_modify every 5 delay 5 check yes
#
restart 1000000 ${folder}/Restart.neutr.${simname}.
restart 1000000 RW_Dt100000_E1.1/Restart.neutr.${simname}.
restart 1000000 RW_Dt100000_E1.1/Restart.neutr.Poly.N500.RW1Dt100000E1.1.
print ${rname}
print INIT/Poly.N500.dat
INIT/Poly.N500.dat
read_data ${rname}
read_data INIT/Poly.N500.dat
  orthogonal box = (-50 -50 -50) to (50 50 50)
  1 by 1 by 1 MPI processor grid
  reading atoms ...
  500 atoms
  scanning bonds ...
  1 = max bonds/atom
  scanning angles ...
  1 = max angles/atom
  reading bonds ...
  499 bonds
  reading angles ...
  498 angles
  2 = max # of 1-2 neighbors
  2 = max # of 1-3 neighbors
  4 = max # of 1-4 neighbors
  6 = max # of special neighbors

####################################
####	GROUPS	             #######
####################################
group blue type 1
500 atoms in group blue
group red type 2
0 atoms in group red
group grey type 3
0 atoms in group grey

change_box all x final -60 60 y final -60 60 z final -60 60 boundary f f f units box
  orthogonal box = (-60 -50 -50) to (60 50 50)
  orthogonal box = (-60 -60 -50) to (60 60 50)
  orthogonal box = (-60 -60 -60) to (60 60 60)

####################################
####	ANGLE	             #######
####################################
angle_style   cosine
angle_coeff  1 3.0  #20 sigma for realistic DNA (1 bead = 2.5 nm)

####################################
####	PAIRS	             #######
####################################
pair_style  soft 2.5
pair_modify     shift yes
pair_coeff      * * 20 1.12246152962189

variable prefactor equal ramp(0,50)
fix pushapart all adapt 1 pair soft a * * v_prefactor

####################################
####	FENE	             #######
####################################
bond_style   fene
special_bonds fene#<=== I M P O R T A N T (new command)
  2 = max # of 1-2 neighbors
  6 = max # of special neighbors
bond_coeff   1  30.0   1.6  1.0  1.0

####################################
####	FIXES	             #######
####################################
fix 1 all   nve
fix 2 all  langevin   1.0 1.0   1.0   ${seed}
fix 2 all  langevin   1.0 1.0   1.0   253

####################################
####	WALL	             #######
####################################
fix WALL all wall/lj126 xhi EDGE 1.0 1.0 1.122462048 xlo EDGE 1.0 1.0 1.122462048 yhi EDGE 1.0 1.0 1.122462048 ylo EDGE 1.0 1.0 1.122462048 zhi EDGE 1.0 1.0 1.122462048 zlo EDGE 1.0 1.0 1.122462048 units box

####################################
####	RESET TIME             #######
####################################
reset_timestep 0

####################################
####	SWAP - ATOMS         #######
####################################
##HERE I USE fix atom/swap to attempt an atom swap between types
## In theory, I don't need to do a loop as the fix does it every
## N timesteps
##FIRST Dt IS NOT SWAPPING ANYWAY!
group Polymer type 1 2 3
500 atoms in group Polymer
fix Aswap Polymer atom/swap ${Dt} ${N} ${seed} ${Temp} semi-grand yes types 1 2 3 mu 0.0 0.0 0.0
fix Aswap Polymer atom/swap 100000 ${N} ${seed} ${Temp} semi-grand yes types 1 2 3 mu 0.0 0.0 0.0
fix Aswap Polymer atom/swap 100000 500 ${seed} ${Temp} semi-grand yes types 1 2 3 mu 0.0 0.0 0.0
fix Aswap Polymer atom/swap 100000 500 253 ${Temp} semi-grand yes types 1 2 3 mu 0.0 0.0 0.0
fix Aswap Polymer atom/swap 100000 500 253 1 semi-grand yes types 1 2 3 mu 0.0 0.0 0.0
variable Swaps equal f_Aswap[2]/1.0
variable Attempts equal f_Aswap[1]/1.0

####################################
####    THERMO AND INTEGRATION
####################################
timestep 0.01
thermo 10000
thermo_style   custom   step  temp  epair vol cpu v_Attempts v_Swaps

####################################
####	EQUILIBRATION        #######
####################################
#THIS IS TO TEST
#PUT LARGER NUMBER WHEN DOING ACTUAL SIMULATIONS
run 100000
Neighbor list info ...
  update every 5 steps, delay 5 steps, check yes
  max neighbors/atom: 2000, page size: 100000
  master list distance cutoff = 2.42246
  ghost atom cutoff = 2.42246
  binsize = 1.21123, bins = 100 100 100
  1 neighbor lists, perpetual/occasional/extra = 1 0 0
  (1) pair soft, perpetual
      attributes: half, newton on
      pair build: half/bin/newton
      stencil: half/bin/3d/newton
      bin: standard
Per MPI rank memory allocation (min/avg/max) = 9.234 | 9.234 | 9.234 Mbytes
Step Temp E_pair Volume CPU v_Attempts v_Swaps 
       0            0            0      1728000            0            0            0 
   10000    1.0294079 0.0064934185      1728000    1.0270469          500          500 
   20000    0.9987672   0.01265543      1728000    1.8569548          500          500 
   30000    1.0377049 0.0053002516      1728000    2.6861129          500          500 
   40000   0.96298537   0.00420477      1728000     3.504066          500          500 
   50000   0.95514074 4.5880284e-05      1728000    4.3279979          500          500 
   60000   0.97827728 4.9670865e-05      1728000    5.1603348          500          500 
   70000   0.96772811 0.00068691548      1728000     5.976218          500          500 
   80000    1.0272917 0.0015087736      1728000    6.7862589          500          500 
   90000    1.0539828 0.0015163033      1728000    7.6082499          500          500 
  100000   0.98519253 0.0023363482      1728000    8.4231229          500          500 
Loop time of 8.42711 on 1 procs for 100000 steps with 500 atoms

Performance: 10252625.211 tau/day, 11866.464 timesteps/s
99.6% CPU use with 1 MPI tasks x 1 OpenMP threads

MPI task timing breakdown:
Section |  min time  |  avg time  |  max time  |%varavg| %total
---------------------------------------------------------------
Pair    | 0.62298    | 0.62298    | 0.62298    |   0.0 |  7.39
Bond    | 2.4513     | 2.4513     | 2.4513     |   0.0 | 29.09
Neigh   | 2.3491     | 2.3491     | 2.3491     |   0.0 | 27.88
Comm    | 0.11128    | 0.11128    | 0.11128    |   0.0 |  1.32
Output  | 0.025898   | 0.025898   | 0.025898   |   0.0 |  0.31
Modify  | 2.7705     | 2.7705     | 2.7705     |   0.0 | 32.88
Other   |            | 0.09604    |            |       |  1.14

Nlocal:    500 ave 500 max 500 min
Histogram: 1 0 0 0 0 0 0 0 0 0
Nghost:    0 ave 0 max 0 min
Histogram: 1 0 0 0 0 0 0 0 0 0
Neighs:    847 ave 847 max 847 min
Histogram: 1 0 0 0 0 0 0 0 0 0

Total # of neighbors = 847
Ave neighs/atom = 1.694
Ave special neighs/atom = 1.996
Neighbor list builds = 4475
Dangerous builds = 0


unfix pushapart
unfix Aswap
reset_timestep 0

#######################################################
####	PAIRS -- REPULSIVE + REDS FERROMAGN 	#######
#######################################################
#ENERGYSCALE
variable Et equal ${E}/${Norm}
variable Et equal 1.1/${Norm}
variable Et equal 1.1/0.88585294441338

pair_style  lj/cut 1.8
pair_modify     shift yes
pair_coeff      * *  1.0 1.0 1.12246152962189

pair_coeff      1 1  ${Et} 1.0 1.8
pair_coeff      1 1  1.24174108912448 1.0 1.8
pair_coeff      1 2  1.0 1.0 1.12246152962189
pair_coeff      1 3  1.0 1.0 1.12246152962189

pair_coeff      2 2  ${Et} 1.0 1.8
pair_coeff      2 2  1.24174108912448 1.0 1.8
pair_coeff      2 3  1.0 1.0 1.12246152962189

pair_coeff      3 3  1.0 1.0 1.12246152962189
#######################################################


########################
## PER PRIMI VICINI   ##
########################
bond_style harmonic
special_bonds lj 1 1 1
  2 = max # of 1-2 neighbors
  2 = max # of 1-3 neighbors
  4 = max # of 1-4 neighbors
  6 = max # of special neighbors
bond_coeff 1 200 1.12246
#bond_style fene
#special_bonds fene
#bond_coeff 1 30 1.6 1.0 1.0

########################
## RECOLOR #############
########################
group Polymer type 1 2 3
500 atoms in group Polymer
variable smooth equal 10
variable dtsmooth equal ${Dt}/${smooth}
variable dtsmooth equal 100000/${smooth}
variable dtsmooth equal 100000/10
variable Nsmooth equal ${N}/${smooth}
variable Nsmooth equal 500/${smooth}
variable Nsmooth equal 500/10
fix Aswap Polymer atom/swap ${dtsmooth} ${Nsmooth} ${seedr} ${Temp} semi-grand yes types 1 2 3 mu 0.0 0.0 0.0
fix Aswap Polymer atom/swap 10000 ${Nsmooth} ${seedr} ${Temp} semi-grand yes types 1 2 3 mu 0.0 0.0 0.0
fix Aswap Polymer atom/swap 10000 50 ${seedr} ${Temp} semi-grand yes types 1 2 3 mu 0.0 0.0 0.0
fix Aswap Polymer atom/swap 10000 50 66 ${Temp} semi-grand yes types 1 2 3 mu 0.0 0.0 0.0
fix Aswap Polymer atom/swap 10000 50 66 1 semi-grand yes types 1 2 3 mu 0.0 0.0 0.0
variable Swaps equal f_Aswap[2]/1.0
variable Attempts equal f_Aswap[1]/1.0

####################################
####    DUMPS                 #######
####################################
##VMD
#dump 1 all custom 1000 ${folder}/${simname}.lammpstrj id mol type x y z
#dump_modify  1   format "%d %d %d %.5f %.5f %.5f"

##DAT
dump 2 all custom 100000 ${folder}/${simname}.* id type x y z ix iy iz
dump 2 all custom 100000 RW_Dt100000_E1.1/${simname}.* id type x y z ix iy iz
dump 2 all custom 100000 RW_Dt100000_E1.1/Poly.N500.RW1Dt100000E1.1.* id type x y z ix iy iz
#dump_modify   2   format "%d %d %.5f %.5f %.5f %d %d %d"

##CFG
#dump 3 all cfg 1000 ${folder}/CFG/${simname}.tot.*.cfg mass type xs ys zs id mol type
#dump_modify 3 element N C O Ca Xe

##XYZ
dump 4 all xyz 100000 XYZ_${simname}.xyz
dump 4 all xyz 100000 XYZ_Poly.N500.RW1Dt100000E1.1.xyz
dump_modify 4 element C O N Xe

###########################
thermo 10000
thermo_style   custom   step  temp  epair vol cpu v_Attempts v_Swaps
run 50000000
Neighbor list info ...
  update every 5 steps, delay 5 steps, check yes
  max neighbors/atom: 2000, page size: 100000
  master list distance cutoff = 3.1
  ghost atom cutoff = 3.1
  binsize = 1.55, bins = 78 78 78
  1 neighbor lists, perpetual/occasional/extra = 1 0 0
  (1) pair lj/cut, perpetual
      attributes: half, newton on
      pair build: half/bin/newton
      stencil: half/bin/3d/newton
      bin: standard
Per MPI rank memory allocation (min/avg/max) = 9.566 | 9.566 | 9.566 Mbytes
Step Temp E_pair Volume CPU v_Attempts v_Swaps 
       0   0.98519253    2.0962907      1728000            0            0            0 
   10000   0.97217662  -0.42286615      1728000   0.82126689           50           41 
   20000    1.0604532  -0.44221707      1728000    1.6572888          100           79 
   30000    1.0097828  -0.49707699      1728000     2.491307          150          107 
   40000    1.0476428  -0.53922144      1728000     9.995214          200          133 
   50000     0.964972  -0.54606981      1728000    10.853337          250          164 
   60000   0.99324059  -0.57483394      1728000    11.720882          300          197 
   70000    1.0258815  -0.60100031      1728000    12.589978          350          225 
   80000   0.97982453  -0.65501942      1728000    13.467163          400          253 
   90000   0.96552416  -0.70389644      1728000    14.392192          450          283 
  100000   0.94714555  -0.77796851      1728000    15.322008          500          309 
  110000    1.0369824  -0.79184361      1728000    16.403349          550          328 
  120000    1.0155769  -0.73749806      1728000    17.376705          600          353 
  130000    1.0130432  -0.81931836      1728000    18.349722          650          375 
  140000     1.001437  -0.74242123      1728000    19.298456          700          396 
  150000    1.0383475  -0.74786302      1728000    20.240495          750          416 
  160000   0.96629374  -0.81788989      1728000    21.166222          800          442 
  170000   0.93490842  -0.84012255      1728000    22.096475          850          472 
  180000   0.97605511  -0.86088435      1728000    23.046516          900          492 
  190000    1.0288438  -0.94646773      1728000    24.013584          950          516 
  200000    1.0905767  -0.88976091      1728000    24.988576         1000          538 
  210000   0.95192582  -0.90865365      1728000     25.99761         1050          558 
  220000    1.0115738  -0.91561352      1728000    26.979594         1100          577 
  230000   0.96979475  -0.89842039      1728000    27.964587         1150          594 
  240000    1.0341182  -0.88507499      1728000    28.932608         1200          616 
  250000   0.96684111  -0.91549745      1728000    29.902606         1250          638 
  260000   0.98831491  -0.97537439      1728000    30.909589         1300          663 
  270000   0.94040511  -0.94335095      1728000    31.899577         1350          687 
  280000   0.99234689   -1.0177274      1728000    32.908533         1400          704 
  290000   0.98505345  -0.95334076      1728000    33.908511         1450          727 
  300000    1.0199151   -1.2455186      1728000    34.969499         1500          746 
  310000   0.92031546   -1.2323596      1728000    36.100536         1550          768 
  320000   0.92825594   -1.2796188      1728000    37.213176         1600          792 
  330000    1.0095968   -1.2558023      1728000    38.342068         1650          809 
  340000    1.0158385   -1.3120828      1728000    39.456184         1700          828 
  350000   0.95783248   -1.2708326      1728000    40.592253         1750          846 
  360000    1.0290712   -1.2476633      1728000    41.724153         1800          866 
  370000   0.98636418    -1.357782      1728000    42.822275         1850          885 
  380000    1.0308355   -1.3024697      1728000    43.943352         1900          903 
  390000   0.98575435   -1.3674633      1728000    45.074172         1950          923 
  400000    1.0402294   -1.3859564      1728000     46.21337         2000          939 
  410000   0.98139093   -1.4411082      1728000    47.384122         2050          952 
  420000   0.95862379   -1.4199431      1728000    48.545191         2100          967 
  430000    1.0216558   -1.3391869      1728000    49.671351         2150          984 
  440000    1.0598554   -1.3879448      1728000    50.802977         2200         1005 
  450000   0.98786252    -1.379848      1728000    51.936271         2250         1024 
  460000    1.0309078   -1.3813319      1728000    53.103204         2300         1037 
  470000    1.0144351   -1.4577875      1728000    54.270086         2350         1049 
  480000    1.0051139   -1.4507359      1728000    55.439141         2400         1061 
  490000   0.95991336   -1.5469251      1728000    56.614304         2450         1072 
  500000    1.0240198   -1.5630496      1728000    57.804278         2500         1086 
  510000    0.9706533   -1.7270098      1728000    59.070089         2550         1104 
  520000    1.0301193    -1.795265      1728000    60.372271         2600         1116 
  530000   0.99624839    -1.572816      1728000    61.591166         2650         1132 
  540000    1.0280755   -1.8028816      1728000     62.84931         2700         1146 
  550000   0.96624816   -1.7842602      1728000    64.121164         2750         1156 
  560000   0.95871444   -1.8438603      1728000    65.446042         2800         1164 
  570000    1.0038466   -1.9215619      1728000    66.777123         2850         1175 
  580000    1.0193607   -1.7793999      1728000     68.11412         2900         1187 
  590000   0.97124616   -1.8283899      1728000    69.432137         2950         1194 
  600000   0.99827414   -1.9526672      1728000    70.796165         3000         1203 
  610000    1.0372251   -2.0920303      1728000    72.144199         3050         1212 
  620000    1.0158988   -2.2483952      1728000    73.573167         3100         1219 
  630000   0.99231593   -2.0070657      1728000    74.965061         3150         1228 
  640000    0.9783335   -2.0717366      1728000    76.330342         3200         1239 
  650000   0.95493518   -1.9143147      1728000    77.708029         3250         1249 
  660000   0.94518268   -2.0096059      1728000    79.097114         3300         1263 
  670000   0.98300564   -2.2168862      1728000    80.519452         3350         1275 
  680000    1.0005795   -2.1339837      1728000    81.996156         3400         1285 
  690000   0.96598573   -2.1772329      1728000    83.482288         3450         1298 
  700000    1.0142019   -2.2298801      1728000    84.956411         3500         1305 
  710000   0.99810626   -2.2332125      1728000    86.408225         3550         1310 
  720000   0.99294362   -2.1288013      1728000    87.877112         3600         1320 
  730000   0.98604563    -2.192066      1728000    89.330183         3650         1327 
  740000    1.0217783   -2.1376947      1728000    90.846103         3700         1335 
  750000    1.0360819   -2.1378247      1728000    92.305138         3750         1341 
  760000    1.0043404   -2.0590868      1728000    93.776305         3800         1348 
  770000    1.0104779    -2.068263      1728000    95.205188         3850         1359 
  780000    1.0015147   -2.1017919      1728000    96.659077         3900         1369 
  790000    1.0106183   -2.0664681      1728000    98.107388         3950         1377 
  800000    1.0542041   -2.0019764      1728000    99.569412         4000         1384 
  810000    1.0248671   -2.0446078      1728000    100.97636         4050         1393 
  820000    0.9791688   -2.0956497      1728000    102.41134         4100         1401 
  830000   0.98711983   -2.2569602      1728000    103.85919         4150         1415 
  840000    1.0004561   -2.1306123      1728000    105.28227         4200         1425 
  850000    1.0133709   -2.2463121      1728000    106.74022         4250         1437 
  860000   0.98912438   -2.1557436      1728000    108.19334         4300         1448 
  870000    1.0446923   -2.1438467      1728000    109.60121         4350         1461 
  880000   0.99351319   -2.2181222      1728000    111.02513         4400         1465 
  890000   0.99980257   -2.3120063      1728000    112.49093         4450         1467 
  900000    1.0304918   -2.2164653      1728000    113.98229         4500         1479 
  910000   0.98989821   -2.3942149      1728000    115.46825         4550         1490 
  920000     1.013101   -2.3718973      1728000    117.00026         4600         1498 
  930000   0.96297722   -2.2139705      1728000     118.5242         4650         1504 
  940000   0.97202827   -2.2689411      1728000    119.99913         4700         1512 
  950000   0.99921971   -2.3713356      1728000    121.47816         4750         1522 
  960000    1.0124055   -2.3465357      1728000     122.9722         4800         1528 
  970000    1.0810818    -2.106678      1728000     124.4634         4850         1533 
  980000   0.94158562   -2.2955157      1728000    125.93115         4900         1543 
  990000    1.0143054   -2.4373514      1728000    127.42426         4950         1549 
 1000000     1.025345   -2.4189197      1728000    128.94536         5000         1554 
 1010000    1.0046485   -2.4055507      1728000    130.45643         5050         1557 
 1020000    1.0132635   -2.3486768      1728000    131.96427         5100         1563 
 1030000    1.0444308   -2.5703663      1728000    133.49656         5150         1568 
 1040000   0.98692929   -2.4421354      1728000    135.01824         5200         1577 
 1050000   0.96797781   -2.4320874      1728000    136.52019         5250         1584 
 1060000   0.93372235   -2.4194035      1728000    138.02613         5300         1594 
 1070000   0.96946909   -2.4456533      1728000    139.55128         5350         1599 
 1080000   0.88700495    -2.479683      1728000    141.10425         5400         1607 
 1090000    1.0200296   -2.4504336      1728000    142.64033         5450         1613 
 1100000   0.98469449   -2.5444328      1728000    144.20525         5500         1617 
 1110000   0.95569982     -2.59893      1728000    145.77052         5550         1623 
 1120000   0.96685637   -2.5170941      1728000    147.31733         5600         1631 
 1130000    1.0341946   -2.4679383      1728000    148.85428         5650         1638 
 1140000    1.0232639   -2.6159424      1728000    150.41639         5700         1644 
 1150000    1.0378428   -2.5835789      1728000    151.95818         5750         1654 
 1160000    1.0389222   -2.4719757      1728000    153.52039         5800         1657 
 1170000    1.0590725   -2.5608301      1728000    155.13633         5850         1662 
 1180000    1.0446254   -2.5180597      1728000    156.67732         5900         1668 
 1190000   0.99304016   -2.5717727      1728000    158.22553         5950         1675 
 1200000    1.0120211   -2.5614907      1728000    159.80119         6000         1680 
 1210000    1.0366834    -2.533564      1728000    161.36627         6050         1687 
 1220000    1.0152445   -2.5883815      1728000    162.95332         6100         1692 
 1230000    1.0065542   -2.5404222      1728000    164.52742         6150         1695 
 1240000   0.98751182   -2.5185263      1728000    166.10644         6200         1700 
 1250000   0.99832166   -2.5586036      1728000    167.68442         6250         1708 
 1260000    1.0295977   -2.5807505      1728000    169.25143         6300         1714 
 1270000    1.0332458   -2.5826511      1728000    170.81446         6350         1719 
 1280000    1.0259407   -2.5532915      1728000    172.37127         6400         1727 
 1290000    1.0002075   -2.4732953      1728000    173.96133         6450         1734 
 1300000    0.9880188     -2.58748      1728000    175.52933         6500         1739 
 1310000   0.97725126   -2.5701035      1728000    177.09246         6550         1745 
 1320000    1.0112565   -2.4190865      1728000    178.64612         6600         1750 
 1330000   0.97245845   -2.3411602      1728000    180.19937         6650         1759 
 1340000    1.0255764   -2.5703858      1728000    181.75028         6700         1770 
 1350000    1.0206498   -2.5590402      1728000    183.32123         6750         1775 
 1360000    1.0090791   -2.5891424      1728000    184.90333         6800         1784 
 1370000     1.069636   -2.6490677      1728000    186.48246         6850         1787 
 1380000    1.0526197   -2.4607359      1728000    188.05718         6900         1793 
 1390000   0.97212268   -2.4747392      1728000    189.62923         6950         1797 
 1400000      1.00054   -2.5067001      1728000    191.19404         7000         1804 
 1410000   0.88447694   -2.4802913      1728000    192.75345         7050         1806 
 1420000   0.94422088   -2.5955945      1728000    194.31325         7100         1809 
 1430000   0.96022944   -2.5958486      1728000    195.90031         7150         1815 
 1440000    1.0646975    -2.575068      1728000    197.47231         7200         1823 
 1450000   0.98988652   -2.5536658      1728000    199.02832         7250         1833 
 1460000    1.0198272   -2.6330307      1728000    200.58737         7300         1842 
 1470000   0.95827596   -2.5628759      1728000    202.18245         7350         1845 
 1480000    1.0193444   -2.6563209      1728000    203.77818         7400         1850 
 1490000   0.98873841   -2.6537322      1728000    205.37408         7450         1850 
 1500000    1.0196425   -2.6643597      1728000    207.00234         7500         1855 
 1510000    1.0082518   -2.7064696      1728000    208.69722         7550         1858 
 1520000   0.99600186   -2.5713438      1728000    210.29132         7600         1865 
 1530000    1.0565789   -2.6283764      1728000    211.86687         7650         1869 
 1540000    1.0222494   -2.6360238      1728000    213.44785         7700         1876 
 1550000   0.98230018   -2.5835883      1728000     215.0472         7750         1881 
 1560000   0.99087397   -2.7624609      1728000    216.64551         7800         1885 
 1570000   0.97644977   -2.7012294      1728000    218.23528         7850         1886 
 1580000   0.98790243   -2.8287558      1728000    219.85724         7900         1892 
 1590000    1.0332588   -2.7554784      1728000    221.49337         7950         1893 
 1600000    0.9780811   -2.6149364      1728000    223.08839         8000         1897 
 1610000    1.0661237   -2.6964448      1728000    224.72313         8050         1901 
 1620000   0.92534599   -2.7963237      1728000    226.34934         8100         1903 
 1630000    1.0269586   -2.7737265      1728000    227.97438         8150         1908 
 1640000   0.93479376   -2.7795228      1728000     229.6175         8200         1910 
 1650000   0.99342552    -2.702849      1728000    231.21834         8250         1918 
 1660000   0.94825766   -2.7949465      1728000    232.81537         8300         1921 
 1670000   0.93167429   -2.7161964      1728000    234.43506         8350         1929 
 1680000   0.98294392    -2.691254      1728000    236.05229         8400         1931 
 1690000    1.0309544   -2.6446195      1728000    237.66437         8450         1934 
 1700000   0.92454241   -2.6365748      1728000    239.29737         8500         1939 
 1710000   0.95715678   -2.7289878      1728000    240.92843         8550         1945 
 1720000   0.95293179   -2.6378943      1728000    242.54732         8600         1951 
 1730000     1.029061   -2.6258787      1728000    244.15151         8650         1955 
 1740000    0.9973455   -2.6892911      1728000    245.75455         8700         1957 
 1750000    1.0370286   -2.6857416      1728000    247.35456         8750         1960 
 1760000   0.96210744   -2.6805257      1728000    248.94524         8800         1965 
 1770000   0.95511467   -2.5272976      1728000    250.54458         8850         1974 
 1780000    1.0264188   -2.5850036      1728000    252.13256         8900         1979 
 1790000   0.99468375   -2.7360149      1728000    253.74635         8950         1985 
 1800000    1.0203755   -2.7463249      1728000    255.38335         9000         1991 
 1810000    1.0090968   -2.6961365      1728000    257.01634         9050         1993 
 1820000    1.0119014   -2.5520213      1728000     258.7033         9100         2002 
 1830000    1.0032997   -2.6436034      1728000    260.40095         9150         2007 
 1840000   0.97182738   -2.7222304      1728000    262.00778         9200         2011 
 1850000   0.99628697   -2.6913427      1728000    263.63239         9250         2018 
 1860000    1.0459928   -2.6014521      1728000    265.21779         9300         2022 
 1870000   0.96635021   -2.6172344      1728000     266.8237         9350         2028 
 1880000   0.97118391   -2.7495976      1728000    268.46849         9400         2032 
 1890000    1.0096426   -2.7121278      1728000    270.08741         9450         2036 
 1900000   0.95037582   -2.6794276      1728000    271.76591         9500         2045 
 1910000     1.045631   -2.7431797      1728000    273.40073         9550         2052 
 1920000    1.0378064   -2.6561478      1728000    275.02835         9600         2059 
 1930000    0.9782482   -2.6251862      1728000    276.64558         9650         2065 
 1940000    1.0126057    -2.740115      1728000    278.27644         9700         2071 
 1950000    1.0013314   -2.8607902      1728000    279.92322         9750         2077 
 1960000    1.0259004   -2.5677067      1728000    281.54346         9800         2087 
 1970000   0.97586217   -2.8299878      1728000    283.19346         9850         2095 
 1980000    1.0677096   -2.7445646      1728000    284.83439         9900         2101 
 1990000    1.0164962   -2.8278536      1728000    286.51324         9950         2105 
 2000000    1.0240377   -2.8689585      1728000    288.18254        10000         2113 
 2010000    1.0679816   -2.7715176      1728000    289.82544        10050         2124 
 2020000    1.0313192   -2.7077984      1728000    291.48044        10100         2127 
 2030000    1.0176861   -2.5607919      1728000    293.11132        10150         2131 
 2040000   0.98816448   -2.6904549      1728000    294.76575        10200         2134 
 2050000    1.0206513   -2.7653762      1728000    296.39035        10250         2139 
 2060000    1.0165842   -2.8263367      1728000    298.03655        10300         2145 
 2070000   0.96201414   -2.8363505      1728000    299.67224        10350         2148 
 2080000    1.0155746    -2.804305      1728000    301.35549        10400         2153 
 2090000    1.0254314   -2.7694787      1728000    303.01137        10450         2160 
 2100000    1.0230878   -2.8165124      1728000    304.69145        10500         2167 
 2110000    1.0352665   -2.6151822      1728000    306.38861        10550         2174 
 2120000    1.1399361   -2.7741314      1728000    308.00424        10600         2180 
 2130000   0.95001994   -2.7010044      1728000    309.68437        10650         2188 
 2140000   0.97826923   -2.7381855      1728000    311.30246        10700         2197 
 2150000    1.0611765   -2.7633825      1728000    312.93547        10750         2203 
 2160000   0.97025156   -2.8598305      1728000    314.56966        10800         2207 
 2170000   0.91174772   -2.6884039      1728000    316.17439        10850         2214 
 2180000    1.0352153   -2.6697757      1728000    317.77837        10900         2216 
 2190000    1.0511995   -2.8448069      1728000    319.42452        10950         2222 
 2200000    1.0066593   -2.7878706      1728000    321.12852        11000         2226 
 2210000    1.0033298    -2.835991      1728000     322.7834        11050         2230 
 2220000    1.0099234   -2.8798856      1728000    324.41856        11100         2236 
 2230000    1.0068786   -2.6578889      1728000    326.04339        11150         2240 
 2240000   0.99825842   -2.7074248      1728000    327.63567        11200         2245 
 2250000   0.98802796   -2.7512812      1728000    329.24141        11250         2251 
 2260000    1.0816416   -2.6821667      1728000    330.85967        11300         2259 
 2270000   0.98008752   -2.7666817      1728000    332.49553        11350         2263 
 2280000    1.0565109   -2.7301163      1728000    334.11667        11400         2266 
 2290000     1.024724   -2.6749788      1728000    335.73257        11450         2275 
 2300000   0.96879585    -2.771535      1728000    337.38445        11500         2281 
 2310000   0.95036028   -2.7181723      1728000     339.0156        11550         2285 
 2320000   0.98962814   -2.7371977      1728000    340.66239        11600         2287 
 2330000   0.95967948   -2.8276902      1728000    342.29029        11650         2293 
 2340000    0.9788434   -2.7730461      1728000    343.92442        11700         2298 
 2350000    1.0517123   -2.7644101      1728000    345.53746        11750         2305 
 2360000    1.0136748   -2.7497604      1728000    347.19975        11800         2311 
 2370000    0.9265709   -2.8624719      1728000    348.84143        11850         2319 
 2380000    1.0618427   -2.7023902      1728000    350.49245        11900         2326 
 2390000     1.047927   -2.6845194      1728000    352.14944        11950         2332 
 2400000    1.0081665   -2.7600152      1728000    353.79123        12000         2338 
 2410000    1.0343618   -2.8995307      1728000    355.46777        12050         2340 
 2420000    1.0197961   -2.8490952      1728000    357.11868        12100         2342 
 2430000    1.0277274   -2.8392565      1728000    358.77129        12150         2346 
 2440000    1.0477606   -2.9486742      1728000    360.42534        12200         2353 
 2450000    1.0127456   -2.7932329      1728000    362.06667        12250         2358 
 2460000   0.98583121   -2.7672425      1728000    363.72535        12300         2361 
 2470000   0.97445208   -2.7965705      1728000    365.38744        12350         2364 
 2480000   0.99752299   -2.8109192      1728000    367.04438        12400         2366 
 2490000   0.95253669   -2.8499008      1728000    368.66253        12450         2369 
 2500000      1.02315   -2.7091385      1728000    370.32272        12500         2380 
 2510000    1.0004042   -2.8753144      1728000    371.97259        12550         2384 
 2520000   0.98438429   -2.8888592      1728000    373.64545        12600         2390 
 2530000   0.92042616   -2.8806277      1728000    375.35627        12650         2393 
 2540000    1.0477627   -2.9258893      1728000    377.04741        12700         2396 
 2550000   0.99800882    -2.801057      1728000     378.7279        12750         2400 
 2560000     1.046413   -2.9950298      1728000    380.41231        12800         2403 
 2570000      1.05108   -2.9041226      1728000    382.06872        12850         2405 
 2580000    1.0157651   -2.9511739      1728000    383.73258        12900         2408 
 2590000    1.0835075   -2.9150075      1728000     385.4146        12950         2413 
 2600000   0.94335271   -3.0374676      1728000    387.09459        13000         2419 
 2610000   0.97985036   -2.9846408      1728000    388.79344        13050         2425 
 2620000   0.99048839   -3.0430177      1728000     390.4986        13100         2428 
 2630000   0.99561773   -3.0734206      1728000    392.19048        13150         2430 
 2640000    0.9955273   -2.8743016      1728000    393.89547        13200         2431 
 2650000   0.97461628   -2.9105305      1728000    395.58051        13250         2436 
 2660000   0.98977366   -2.8555118      1728000    397.28389        13300         2440 
 2670000    1.0495268   -2.9207331      1728000     398.9555        13350         2447 
 2680000   0.96084835   -2.8321886      1728000    400.67758        13400         2449 
 2690000   0.98370721   -2.9084938      1728000    402.36956        13450         2455 
 2700000   0.98800626   -3.0177427      1728000    404.06741        13500         2458 
 2710000    1.0943492    -2.859138      1728000    405.75661        13550         2462 
 2720000    0.9244458    -2.914611      1728000    407.46351        13600         2465 
 2730000    1.0047066   -2.7390168      1728000    409.13667        13650         2467 
 2740000    1.0684388   -2.9471084      1728000    410.82647        13700         2469 
 2750000   0.95984167   -2.9678075      1728000    412.51463        13750         2475 
 2760000    1.0139462   -3.0157082      1728000    414.18938        13800         2479 
 2770000     1.000925   -3.0274734      1728000    415.88249        13850         2484 
 2780000   0.96720875   -2.9406102      1728000    417.55828        13900         2487 
 2790000   0.97094345   -3.0225466      1728000    419.25549        13950         2489 
 2800000    1.0006926    -2.986074      1728000    420.94143        14000         2493 
 2810000    1.0298245   -2.9150122      1728000     422.6377        14050         2495 
 2820000    1.0195078   -2.9607921      1728000    424.32655        14100         2496 
 2830000    1.0232467    -2.931557      1728000    426.02658        14150         2499 
 2840000     1.004615   -2.9362433      1728000    427.71665        14200         2501 
 2850000   0.97079984   -2.8793196      1728000    429.38957        14250         2503 
 2860000    1.0025803   -2.7758196      1728000    431.05358        14300         2508 
 2870000   0.96747801    -2.879666      1728000    432.72042        14350         2512 
 2880000     1.023198    -2.915032      1728000     434.3775        14400         2515 
 2890000    1.0010288   -2.9538382      1728000    436.06075        14450         2516 
 2900000    1.0041158    -2.886395      1728000    437.75177        14500         2519 
 2910000    1.0967999   -3.0291317      1728000    439.43538        14550         2523 
 2920000   0.96223907   -2.8932133      1728000    441.13255        14600         2524 
 2930000     1.040852   -2.9668674      1728000    442.83677        14650         2528 
 2940000    1.0094804    -2.952151      1728000    444.54454        14700         2529 
 2950000    1.0239467   -2.9438631      1728000    446.22972        14750         2531 
 2960000   0.94950461   -2.9779682      1728000    447.90244        14800         2535 
 2970000   0.97269645   -2.9928136      1728000    449.60371        14850         2538 
 2980000   0.91275317   -2.8707402      1728000    451.27762        14900         2539 
 2990000    1.0306447   -2.8871349      1728000    452.93967        14950         2543 
 3000000     1.027109   -2.9421776      1728000    454.66554        15000         2548 
 3010000   0.96871715   -3.0180937      1728000    456.37858        15050         2549 
 3020000    1.0139402   -2.8919551      1728000    458.07547        15100         2550 
 3030000    1.0364093   -3.0121004      1728000    459.73672        15150         2553 
 3040000   0.95454779   -2.8757074      1728000    461.41564        15200         2556 
 3050000   0.96821467   -2.9627012      1728000    463.11173        15250         2565 
 3060000   0.94513579   -2.8691172      1728000    464.80059        15300         2570 
 3070000    1.0327676   -2.7948582      1728000    466.50172        15350         2577 
 3080000   0.96778693   -2.9229704      1728000    468.17673        15400         2581 
 3090000     1.049198   -2.8938541      1728000    469.86975        15450         2584 
 3100000    1.0642343   -2.9083183      1728000    471.56651        15500         2589 
 3110000    1.0420408   -2.8977471      1728000     473.2427        15550         2592 
 3120000   0.97415663   -2.7734707      1728000    474.89958        15600         2595 
 3130000     1.042626   -2.7646797      1728000    476.55067        15650         2598 
 3140000   0.98910473   -2.8287574      1728000    478.25761        15700         2601 
 3150000     1.016508   -2.9978704      1728000    479.91975        15750         2606 
 3160000    1.0203493   -2.9230891      1728000    481.60363        15800         2611 
 3170000   0.97886164   -2.9866227      1728000    483.31047        15850         2618 
 3180000   0.97077418   -3.0905079      1728000    485.01458        15900         2620 
 3190000   0.96957771   -2.9699457      1728000    486.70968        15950         2621 
 3200000    1.0059642   -2.9741221      1728000    488.42872        16000         2626 
 3210000    1.0300332    -3.050798      1728000    490.12245        16050         2627 
 3220000   0.97154525   -2.9871674      1728000    491.81207        16100         2628 
 3230000   0.93933363   -2.9411022      1728000    493.52255        16150         2634 
 3240000   0.97304917   -2.9980253      1728000    495.22472        16200         2637 
 3250000      1.00732   -2.9286287      1728000    496.95347        16250         2643 
 3260000    1.0544537   -3.1577429      1728000    498.64945        16300         2645 
 3270000    1.0543503   -3.0476611      1728000    500.36824        16350         2650 
 3280000   0.94145542   -2.8446901      1728000    502.06323        16400         2652 
 3290000   0.98906613   -3.0774884      1728000    503.75068        16450         2654 
 3300000   0.99369001   -2.9883859      1728000    505.46466        16500         2655 
 3310000    1.0079832   -3.0516356      1728000    507.16753        16550         2656 
 3320000     1.034319   -2.9342721      1728000    508.88355        16600         2660 
 3330000    1.0003389   -2.8378928      1728000    510.57864        16650         2663 
 3340000    1.0291624   -2.9093017      1728000    512.27152        16700         2666 
 3350000    1.0015864   -3.0233011      1728000    513.98267        16750         2670 
 3360000    1.0209089   -3.0019818      1728000    515.68375        16800         2675 
 3370000   0.99691108   -3.0193964      1728000    517.35771        16850         2679 
 3380000    1.0081159   -2.8674804      1728000    519.05658        16900         2679 
 3390000    1.0001684      -3.1065      1728000    520.76685        16950         2684 
 3400000    1.0619031   -3.1098161      1728000    522.48079        17000         2688 
 3410000    1.0317546     -2.87703      1728000    524.18034        17050         2690 
 3420000     1.022197    -2.992043      1728000    525.85683        17100         2695 
 3430000    1.0977155   -3.0014952      1728000    527.55581        17150         2696 
 3440000   0.99465439    -2.972184      1728000    529.26967        17200         2698 
 3450000   0.97668727   -2.9757313      1728000    530.95868        17250         2698 
 3460000   0.98607754   -2.9359379      1728000    532.64861        17300         2702 
 3470000    1.0047643   -2.7990326      1728000    534.34573        17350         2705 
 3480000   0.99175851   -2.8651876      1728000    536.08729        17400         2711 
 3490000   0.99168352   -2.8978467      1728000    537.75676        17450         2716 
 3500000    1.0052635    -2.990782      1728000    539.50567        17500         2720 
 3510000    0.9594697   -2.9711047      1728000    541.20249        17550         2722 
 3520000    1.0281365   -2.9736835      1728000    542.89562        17600         2723 
 3530000    1.0191914   -2.8754885      1728000    544.58874        17650         2726 
 3540000    1.0768036   -3.0383297      1728000    546.28759        17700         2731 
 3550000    1.0264108   -2.8734879      1728000    547.99656        17750         2736 
 3560000    1.0859442   -3.0075651      1728000    549.69376        17800         2742 
 3570000    0.9607306   -3.0951591      1728000     551.3857        17850         2745 
 3580000   0.95353172   -3.0445968      1728000    553.09259        17900         2746 
 3590000   0.98948794   -3.0311404      1728000    554.79271        17950         2748 
 3600000   0.97297337   -2.9912434      1728000    556.47559        18000         2752 
 3610000   0.90187642   -3.0216117      1728000    558.15662        18050         2754 
 3620000   0.99899826   -2.9886783      1728000     559.8477        18100         2756 
 3630000   0.97872966   -3.0083662      1728000    561.56958        18150         2760 
 3640000   0.99694491   -3.0593045      1728000    563.26976        18200         2765 
 3650000   0.99436072   -3.0558965      1728000    564.96668        18250         2767 
 3660000    1.0006315   -2.9525362      1728000    566.67609        18300         2771 
 3670000   0.98425671   -3.1044675      1728000    568.37897        18350         2773 
 3680000   0.96985366   -3.0009122      1728000    570.08078        18400         2779 
 3690000    1.0096244   -3.0261933      1728000    571.84186        18450         2781 
 3700000   0.97829854   -2.9969507      1728000    573.59081        18500         2784 
 3710000    1.0054249   -2.9576233      1728000    575.28127        18550         2788 
 3720000    1.0066271   -2.9175258      1728000    576.97781        18600         2792 
 3730000    1.0335466   -2.9632829      1728000    578.68011        18650         2795 
 3740000   0.98286386   -2.9736174      1728000    580.39783        18700         2799 
 3750000    1.0184426   -2.9547255      1728000     582.1148        18750         2803 
 3760000    1.0387545   -2.9388624      1728000    583.79177        18800         2807 
 3770000   0.94563314   -2.9660667      1728000     585.4506        18850         2808 
 3780000   0.94784847   -2.9913948      1728000    587.15275        18900         2810 
 3790000    1.0166087   -3.0414827      1728000    588.86169        18950         2814 
 3800000    1.0007153   -3.0584951      1728000    590.59345        19000         2818 
 3810000   0.92435786   -3.0908285      1728000    592.30767        19050         2823 
 3820000    1.0078895    -3.119106      1728000     594.0354        19100         2826 
 3830000    1.0298116   -3.1128406      1728000    595.76181        19150         2830 
 3840000    1.0199578   -3.0573234      1728000    597.47479        19200         2831 
 3850000    1.0301176   -3.0916438      1728000    599.20478        19250         2833 
 3860000   0.98350484   -3.1258036      1728000    600.94882        19300         2839 
 3870000    1.0065676   -3.0356811      1728000    602.68064        19350         2841 
 3880000    1.0001321   -3.0800919      1728000    604.39172        19400         2845 
 3890000   0.96619234   -2.9243545      1728000    606.10273        19450         2850 
 3900000    1.0581146   -3.2113107      1728000    607.83057        19500         2854 
 3910000   0.98700389   -3.1130003      1728000    609.57871        19550         2855 
 3920000    1.0094166   -3.1454844      1728000    611.26185        19600         2859 
 3930000    1.0058858   -3.2171508      1728000    612.95374        19650         2860 
 3940000    0.9443929   -3.0423775      1728000    614.66176        19700         2861 
 3950000   0.99578577   -3.1679026      1728000    616.36379        19750         2863 
 3960000    1.0257319   -3.3310583      1728000    618.08675        19800         2863 
 3970000    1.0434251   -3.0793306      1728000    619.80173        19850         2863 
 3980000    1.0289576   -3.1884464      1728000    621.49872        19900         2865 
 3990000   0.92910198   -3.1366095      1728000    623.19771        19950         2869 
 4000000    1.0494115   -3.1076435      1728000    624.91653        20000         2870 
 4010000   0.98560653   -3.0762815      1728000    626.59577        20050         2874 
 4020000     1.026507   -3.0191188      1728000    628.28675        20100         2878 
 4030000   0.99774967   -3.1585355      1728000    629.98113        20150         2878 
 4040000     1.048921    -3.148046      1728000    631.73555        20200         2880 
 4050000    1.0173541   -3.0575362      1728000    633.46471        20250         2881 
 4060000   0.94296869    -3.123333      1728000    635.18261        20300         2882 
 4070000    1.0014715   -3.0755542      1728000    636.91164        20350         2886 
 4080000   0.93449493   -2.9697432      1728000    638.62788        20400         2889 
 4090000   0.96569067   -3.0729146      1728000    640.36666        20450         2895 
 4100000    1.0033517   -3.0372699      1728000    642.07379        20500         2899 
 4110000    1.0295065   -3.0301906      1728000    643.76677        20550         2901 
 4120000   0.96914113   -3.0834088      1728000    645.45914        20600         2901 
 4130000     1.010689   -3.0926774      1728000    647.15524        20650         2903 
 4140000   0.99323286   -3.0570389      1728000    648.83392        20700         2908 
 4150000   0.97790768    -3.102876      1728000    650.52188        20750         2909 
 4160000   0.96622855   -3.1103738      1728000    652.20566        20800         2913 
 4170000    1.0010353    -3.125936      1728000    653.93055        20850         2916 
 4180000   0.95448022   -3.1184912      1728000    655.65177        20900         2919 
 4190000    1.0645997    -3.101814      1728000    657.37484        20950         2924 
 4200000    1.0182298   -2.9837641      1728000    659.09781        21000         2925 
 4210000    1.0142034   -2.9952677      1728000    660.81086        21050         2929 
 4220000    1.0192282    -3.034646      1728000    662.55485        21100         2934 
 4230000   0.99104629   -3.0575845      1728000    664.25879        21150         2936 
 4240000    1.0037573   -3.0053681      1728000    665.98388        21200         2940 
 4250000    1.0004257   -3.1514978      1728000    667.72381        21250         2941 
 4260000   0.99016632   -3.1927915      1728000    669.44777        21300         2945 
 4270000    1.0391399   -3.0299989      1728000    671.18078        21350         2946 
 4280000   0.97330526   -3.0413055      1728000    672.91683        21400         2950 
 4290000   0.98621285    -3.070133      1728000    674.66886        21450         2952 
 4300000    1.0275739   -3.0371394      1728000    676.40068        21500         2954 
 4310000    1.0607108    -3.111536      1728000    678.12886        21550         2957 
 4320000   0.97058937   -2.9819593      1728000    679.85873        21600         2962 
 4330000      1.03716    -3.030969      1728000    681.57982        21650         2966 
 4340000    1.0021821   -3.0767345      1728000    683.30265        21700         2969 
 4350000   0.94265592   -3.0997243      1728000    685.02082        21750         2973 
 4360000    1.0360405   -3.0995412      1728000    686.75391        21800         2974 
 4370000   0.97213326   -3.0840281      1728000     688.4479        21850         2980 
 4380000   0.97238017   -3.1999496      1728000    690.15286        21900         2984 
 4390000   0.93937307   -3.1610782      1728000    691.84887        21950         2989 
 4400000    1.0338604   -3.0533819      1728000    693.56577        22000         2989 
 4410000   0.98719781   -3.1266432      1728000    695.29585        22050         2994 
 4420000    1.0283307   -3.0328577      1728000    697.00987        22100         3007 
 4430000    1.0434219   -3.0241328      1728000    698.71386        22150         3008 
 4440000   0.98808528   -2.9887784      1728000    700.42286        22200         3011 
 4450000   0.98821545   -3.1049506      1728000    702.15474        22250         3015 
 4460000    1.0699898   -3.0118584      1728000    703.83678        22300         3019 
 4470000    1.0133433   -3.0671999      1728000    705.51865        22350         3024 
 4480000    1.0626076   -3.0557335      1728000    707.23163        22400         3027 
 4490000   0.98477549   -2.9655702      1728000    708.95684        22450         3031 
 4500000   0.98789488   -3.0300201      1728000    710.70053        22500         3035 
 4510000   0.98805262   -3.1069888      1728000    712.40444        22550         3039 
 4520000    1.0324001    -2.941339      1728000    714.12918        22600         3043 
 4530000   0.96412991   -2.9144417      1728000    715.82779        22650         3048 
 4540000    1.0582795   -3.0416765      1728000    717.53765        22700         3052 
 4550000    1.0012519   -3.0932909      1728000    719.26686        22750         3056 
 4560000   0.93591762   -3.1794694      1728000     721.0009        22800         3058 
 4570000    1.0549739   -3.0355219      1728000    722.73863        22850         3062 
 4580000   0.96410426   -3.0807636      1728000    724.46493        22900         3064 
 4590000   0.98364345   -3.2181018      1728000    726.18185        22950         3068 
 4600000   0.96571722   -3.1507605      1728000    727.89794        23000         3071 
 4610000    1.0388501   -3.0701599      1728000    729.58093        23050         3073 
 4620000    1.0488733   -3.0071822      1728000    731.27197        23100         3075 
 4630000    0.9967125   -3.0225822      1728000     732.9547        23150         3077 
 4640000    1.0424841   -2.9878857      1728000    734.63495        23200         3078 
 4650000   0.98126285   -3.0915681      1728000    736.36282        23250         3079 
 4660000    1.0401949   -3.0460779      1728000    738.14896        23300         3080 
 4670000   0.93599508   -3.1906716      1728000     739.8778        23350         3084 
 4680000    1.0699154   -3.0305662      1728000    741.56486        23400         3087 
 4690000    1.0381307   -3.0982939      1728000    743.24568        23450         3090 
 4700000   0.99797819   -2.9986943      1728000      744.938        23500         3094 
 4710000    0.9927952   -3.0399839      1728000      746.616        23550         3096 
 4720000   0.98125002   -2.9381001      1728000    748.32265        23600         3099 
 4730000   0.98601794   -3.0045551      1728000    749.99656        23650         3102 
 4740000   0.94497815   -3.0496711      1728000    751.66067        23700         3105 
 4750000   0.99586115   -2.9265402      1728000    753.34099        23750         3106 
 4760000   0.99734397   -3.0965449      1728000    755.00585        23800         3110 
 4770000     1.060527   -3.0803478      1728000     756.6918        23850         3113 
 4780000   0.99914857    -3.195946      1728000    758.38487        23900         3117 
 4790000   0.97634182   -3.1005259      1728000    760.06817        23950         3117 
 4800000    1.0001168   -3.0050311      1728000    761.74569        24000         3119 
 4810000    1.0240277   -3.1825916      1728000    763.45752        24050         3127 
 4820000   0.99173815   -3.0565231      1728000     765.1563        24100         3130 
 4830000     1.026859   -3.0156015      1728000    766.83352        24150         3135 
 4840000   0.99314768   -3.0725388      1728000    768.50942        24200         3137 
 4850000     1.053831   -2.9350068      1728000    770.18489        24250         3140 
 4860000   0.97263539   -3.0937772      1728000    771.86694        24300         3145 
 4870000    1.0095918   -3.0637921      1728000    773.56971        24350         3148 
 4880000   0.96401474   -3.1138708      1728000    775.31692        24400         3151 
 4890000    1.0476604   -3.0756288      1728000    777.05593        24450         3152 
 4900000   0.96473828    -3.035238      1728000    778.79194        24500         3155 
 4910000    1.0329429   -2.9684187      1728000    780.52386        24550         3157 
 4920000    1.0198297   -3.0927936      1728000    782.23283        24600         3163 
 4930000    1.0083827   -2.9929494      1728000    783.96198        24650         3167 
 4940000    1.0567033   -3.1124297      1728000      785.661        24700         3172 
 4950000    1.0567825   -3.0795043      1728000    787.38596        24750         3177 
 4960000    1.0313006    -3.061006      1728000    789.13653        24800         3178 
 4970000   0.98013933    -3.242197      1728000    790.89605        24850         3180 
 4980000    1.0001748   -3.0243944      1728000     792.6387        24900         3189 
 4990000   0.99227713    -3.120587      1728000    794.37488        24950         3191 
 5000000    1.0328565   -3.0203704      1728000    796.14692        25000         3191 
 5010000    1.0180604   -3.0801848      1728000    797.88487        25050         3197 
 5020000   0.94553977   -3.1065106      1728000    799.63095        25100         3199 
 5030000   0.96907916   -3.2174397      1728000    801.37298        25150         3201 
 5040000     1.057723   -3.1353043      1728000    803.11492        25200         3203 
 5050000    0.9967305   -3.0026377      1728000    804.86895        25250         3207 
 5060000   0.99445789   -3.1470371      1728000    806.60794        25300         3210 
 5070000    1.0449544   -3.0985057      1728000    808.30904        25350         3214 
 5080000   0.95545374   -3.1641501      1728000    810.01892        25400         3218 
 5090000   0.95918816   -3.0323817      1728000     811.7139        25450         3220 
 5100000   0.95135031   -3.0350108      1728000    813.43284        25500         3220 
 5110000   0.98861409   -3.1203302      1728000    815.13693        25550         3222 
 5120000    1.0419388   -3.2004589      1728000    816.82106        25600         3227 
 5130000    1.0379491   -3.1201149      1728000    818.63008        25650         3231 
 5140000    1.0246208   -3.2156882      1728000    820.38217        25700         3232 
 5150000    1.0110217   -3.0872117      1728000    822.11896        25750         3233 
 5160000   0.94545543   -3.0612182      1728000    823.84702        25800         3238 
 5170000   0.97916853   -3.1205124      1728000    825.59319        25850         3239 
 5180000    1.0035381   -3.0656107      1728000    827.32147        25900         3244 
 5190000   0.99459114   -3.0530462      1728000     829.0659        25950         3247 
 5200000   0.99244968   -3.1560126      1728000    830.78599        26000         3251 
 5210000   0.98775913   -3.0283897      1728000    832.52006        26050         3255 
 5220000   0.97914619    -3.172268      1728000    834.27361        26100         3259 
 5230000   0.98940243   -3.0359061      1728000    836.08014        26150         3262 
 5240000    1.0009574   -3.0220959      1728000    837.83407        26200         3263 
 5250000   0.95156609   -3.1244151      1728000    839.57601        26250         3265 
 5260000   0.98794175   -3.0863576      1728000    841.30808        26300         3268 
 5270000   0.98041066   -3.2253976      1728000    843.04952        26350         3271 
 5280000   0.96826235   -3.1399806      1728000      844.807        26400         3273 
 5290000    1.0321613   -3.1522115      1728000    846.56306        26450         3273 
 5300000    1.0488235    -3.139393      1728000    848.32522        26500         3276 
 5310000   0.93818114   -3.0587117      1728000    850.08501        26550         3284 
 5320000   0.96487508   -3.2435417      1728000    851.83992        26600         3286 
 5330000   0.94522626   -3.2471033      1728000    853.60006        26650         3290 
 5340000   0.91304994   -3.1214629      1728000    855.34308        26700         3293 
 5350000    1.0334699   -3.1726114      1728000    857.08489        26750         3293 
 5360000     1.001811   -3.1098927      1728000    858.83183        26800         3297 
 5370000    1.0032316   -3.0104482      1728000    860.56301        26850         3299 
 5380000    1.0518645    -3.126163      1728000     862.2849        26900         3303 
 5390000    1.0117799   -3.0231793      1728000    863.98995        26950         3307 
 5400000   0.97186004   -2.9933863      1728000    865.72041        27000         3311 
 5410000   0.94120379   -3.0379677      1728000    867.45687        27050         3313 
 5420000   0.95469008   -3.0595175      1728000    869.17455        27100         3316 
 5430000   0.99913102   -3.1178958      1728000    870.88979        27150         3320 
 5440000   0.97522789   -3.1585241      1728000    872.64205        27200         3321 
 5450000    0.9868525   -3.1049162      1728000    874.44032        27250         3323 
 5460000   0.97221389   -3.0741453      1728000    876.18625        27300         3323 
 5470000    1.0588201   -3.0604697      1728000    877.90463        27350         3327 
 5480000    0.9798846   -3.0172285      1728000    879.65483        27400         3333 
 5490000   0.98535562   -2.9123461      1728000    881.37326        27450         3336 
 5500000    1.0126217   -3.1549635      1728000    883.13012        27500         3339 
 5510000    1.0131165   -3.1313713      1728000    884.87291        27550         3343 
 5520000   0.93260758   -3.0823932      1728000      886.623        27600         3346 
 5530000   0.97610476   -3.0579884      1728000    888.35506        27650         3348 
 5540000   0.96880895   -3.0385142      1728000    890.10616        27700         3352 
 5550000   0.98222084   -2.9811142      1728000     891.8381        27750         3355 
 5560000    1.0278062   -3.1180568      1728000    893.57004        27800         3359 
 5570000   0.93382253    -3.021995      1728000    895.30896        27850         3364 
 5580000   0.96959791   -3.0413814      1728000    897.04305        27900         3370 
 5590000   0.99949324   -3.1369421      1728000    898.77302        27950         3374 
 5600000   0.98892205   -3.0098595      1728000    900.50187        28000         3378 
 5610000    1.0614116   -2.9830461      1728000    902.22108        28050         3385 
 5620000    1.0571796   -2.9617661      1728000     903.9461        28100         3390 
 5630000    1.0059715   -3.0019668      1728000    905.67788        28150         3394 
 5640000   0.99209011   -3.0174161      1728000    907.38503        28200         3397 
 5650000   0.95922581   -2.9606668      1728000    909.14647        28250         3403 
 5660000   0.95033329    -2.970521      1728000    910.87106        28300         3405 
 5670000    1.0429702   -3.1748938      1728000    912.60719        28350         3412 
 5680000    1.0387134   -3.1233023      1728000     914.3378        28400         3416 
 5690000    1.0110537   -3.1568467      1728000    916.07475        28450         3420 
 5700000     1.068743   -2.9662686      1728000     917.8291        28500         3422 
 5710000    1.0085201    -3.176938      1728000    919.58955        28550         3427 
 5720000   0.96271788   -3.1455467      1728000    921.34241        28600         3428 
 5730000    1.0227333   -3.1207389      1728000    923.08386        28650         3430 
 5740000    1.0430969   -3.0558457      1728000    924.80789        28700         3436 
 5750000   0.92892157   -3.0709308      1728000    926.53713        28750         3440 
 5760000    1.0500134   -3.0750062      1728000    928.28512        28800         3444 
 5770000   0.92957511   -3.1309989      1728000    930.03094        28850         3444 
 5780000   0.96864149   -3.1023905      1728000    931.78811        28900         3446 
 5790000    1.0788231   -3.0947955      1728000    933.53591        28950         3450 
 5800000    1.0151907   -3.1885961      1728000    935.29135        29000         3455 
 5810000   0.96525267   -3.1624697      1728000    937.06013        29050         3456 
 5820000   0.97630891   -2.9534948      1728000     938.8084        29100         3457 
 5830000     1.022812   -3.1015923      1728000    940.54211        29150         3460 
 5840000   0.98459528   -3.1753772      1728000    942.27088        29200         3461 
 5850000   0.95190759   -3.0971278      1728000    944.00205        29250         3470 
 5860000    1.0215559   -3.0426704      1728000    945.73404        29300         3473 
 5870000   0.98175416   -3.0429381      1728000    947.47207        29350         3474 
 5880000    1.0699055   -3.1045256      1728000    949.21715        29400         3478 
 5890000   0.92613395    -2.982842      1728000    950.95416        29450         3485 
 5900000    1.0196676   -3.1005998      1728000    952.69109        29500         3488 
 5910000   0.98784843   -2.9509134      1728000    954.41713        29550         3491 
 5920000    1.0110197   -3.0545908      1728000    956.16307        29600         3493 
 5930000   0.98749358    -3.092651      1728000    957.90024        29650         3495 
 5940000   0.96193398   -3.0800336      1728000    959.63217        29700         3502 
 5950000   0.98498004   -2.9858479      1728000    961.38611        29750         3503 
 5960000    1.0453674   -3.0535902      1728000    963.15016        29800         3506 
 5970000    1.0016787   -3.1365884      1728000    964.89879        29850         3507 
 5980000   0.94455498   -3.1193013      1728000    966.65606        29900         3509 
 5990000    0.9889342   -3.0327854      1728000    968.38605        29950         3514 
 6000000   0.98643643   -3.0790407      1728000    970.10909        30000         3515 
 6010000    1.0022139   -3.0614841      1728000     971.8221        30050         3518 
 6020000   0.98295091   -3.0680904      1728000    973.55301        30100         3520 
 6030000   0.97882118   -3.1688596      1728000    975.30511        30150         3522 
 6040000    1.0749438    -2.957031      1728000    977.12008        30200         3522 
 6050000   0.99860407   -3.0150526      1728000    978.91223        30250         3526 
 6060000    1.0089685   -3.1836606      1728000    980.71326        30300         3527 
 6070000    1.0246125   -3.0202638      1728000    982.44399        30350         3530 
 6080000   0.92608184   -3.0032412      1728000    984.15284        30400         3533 
 6090000    1.0511438   -3.1248378      1728000      985.879        30450         3538 
 6100000    1.0033473   -3.1441238      1728000    987.64409        30500         3540 
 6110000   0.97138372   -3.0424271      1728000    989.39413        30550         3544 
 6120000    1.0729477   -3.0835331      1728000    991.11894        30600         3547 
 6130000    1.0640412   -2.9523206      1728000     992.8652        30650         3549 
 6140000    1.0189161   -3.0184947      1728000    994.59792        30700         3550 
 6150000    1.0237609   -3.0653711      1728000    996.30713        30750         3553 
 6160000     1.044345   -3.0536648      1728000    998.03804        30800         3554 
 6170000    1.0447176   -3.0726977      1728000    999.75741        30850         3558 
 6180000    1.0171333   -3.1543155      1728000    1001.5089        30900         3565 
 6190000    1.0130155   -3.0808557      1728000    1003.2435        30950         3570 
 6200000    1.0414472   -3.0187536      1728000    1004.9862        31000         3572 
 6210000    1.0277925   -3.0676481      1728000    1006.7172        31050         3574 
 6220000   0.97796962   -3.0359059      1728000    1008.4369        31100         3576 
 6230000     1.003371   -3.0078703      1728000    1010.1751        31150         3580 
 6240000   0.97695504   -2.9272033      1728000    1011.8888        31200         3583 
 6250000    1.0247876   -3.0414624      1728000    1013.6101        31250         3587 
 6260000    1.0323237   -3.0714182      1728000    1015.3362        31300         3589 
 6270000    1.0305209   -3.0546779      1728000     1017.065        31350         3591 
 6280000    1.0806686   -3.0305381      1728000    1018.7915        31400         3594 
 6290000    1.0170196    -3.001289      1728000    1020.5199        31450         3595 
 6300000    1.0697972   -3.1206596      1728000     1022.314        31500         3600 
 6310000    1.0354931   -3.0999189      1728000    1024.0509        31550         3603 
 6320000   0.97594452   -3.0679353      1728000     1025.799        31600         3608 
 6330000    0.9636801   -3.0590027      1728000    1027.5571        31650         3610 
 6340000   0.98639114   -3.1407251      1728000    1029.3132        31700         3615 
 6350000   0.96886312   -3.0482162      1728000    1031.0391        31750         3619 
 6360000    1.0453404   -2.9994544      1728000    1032.7729        31800         3620 
 6370000    1.0420186   -3.0217622      1728000    1034.5161        31850         3623 
 6380000   0.99578869   -3.1743843      1728000    1036.2821        31900         3628 
 6390000    0.9747132   -3.1595866      1728000    1038.0643        31950         3631 
 6400000   0.96036075   -3.2122689      1728000    1039.8202        32000         3633 
 6410000    1.0049649   -3.1955597      1728000    1041.5951        32050         3634 
 6420000   0.97362439   -3.1241208      1728000    1043.3381        32100         3640 
 6430000   0.98025292   -3.2626717      1728000    1045.0981        32150         3641 
 6440000   0.95633998   -3.2164752      1728000    1046.8591        32200         3642 
 6450000   0.95661735   -3.0792412      1728000     1048.635        32250         3645 
 6460000    1.0232805   -3.1853969      1728000    1050.4012        32300         3646 
 6470000   0.99462526   -3.2318889      1728000    1052.2031        32350         3647 
 6480000    1.0368701   -3.2887256      1728000    1053.9912        32400         3647 
 6490000    1.0439782   -3.1861323      1728000    1055.7733        32450         3648 
 6500000   0.96752907   -3.2782366      1728000    1057.5643        32500         3654 
 6510000   0.99133097   -3.2965356      1728000    1059.3471        32550         3655 
 6520000    1.0300632   -3.3040844      1728000    1061.1127        32600         3655 
 6530000   0.98659571   -3.1649754      1728000    1062.8739        32650         3656 
 6540000   0.98385636   -3.2205551      1728000    1064.6402        32700         3659 
 6550000   0.99359109   -3.2834476      1728000    1066.4401        32750         3661 
 6560000    1.0534786   -3.1935726      1728000    1068.2651        32800         3661 
 6570000    0.9938336   -3.2638171      1728000    1070.0431        32850         3663 
 6580000     1.055403   -3.1577848      1728000    1071.8091        32900         3665 
 6590000    1.0441235   -3.1883572      1728000    1073.5606        32950         3669 
 6600000   0.99848472   -3.2738436      1728000    1075.3636        33000         3669 
 6610000    1.0004729   -3.1927116      1728000    1077.1482        33050         3669 
 6620000   0.94125497   -3.3049084      1728000    1078.9302        33100         3670 
 6630000   0.97289514   -3.2818487      1728000    1080.7312        33150         3671 
 6640000    1.0291224    -3.162554      1728000    1082.5003        33200         3671 
 6650000    1.0367433   -3.2212513      1728000    1084.2761        33250         3672 
 6660000    1.0547994   -3.1293746      1728000    1086.0634        33300         3675 
 6670000    1.0081043   -3.1627645      1728000    1087.8482        33350         3677 
 6680000   0.95904519   -3.1660278      1728000    1089.6113        33400         3680 
 6690000   0.98236368   -3.1960716      1728000    1091.3903        33450         3680 
 6700000   0.94760131   -3.0490971      1728000    1093.1541        33500         3683 
 6710000    1.0240999   -3.1332564      1728000    1094.9433        33550         3683 
 6720000    1.0503799    -3.182099      1728000    1096.7341        33600         3683 
 6730000    1.0005843   -3.2950463      1728000    1098.4982        33650         3686 
 6740000    1.0092218   -3.2715397      1728000    1100.2791        33700         3691 
 6750000    1.0150746   -3.3332032      1728000    1102.0612        33750         3695 
 6760000    1.0105617   -3.3059905      1728000    1103.8592        33800         3696 
 6770000   0.99602075   -3.2722996      1728000    1105.6402        33850         3696 
 6780000    1.0164266   -3.3461215      1728000    1107.4073        33900         3697 
 6790000    1.0084668   -3.2839033      1728000     1109.167        33950         3699 
 6800000    1.0111251   -3.2045279      1728000    1110.9663        34000         3699 
 6810000   0.98750311    -3.292912      1728000    1112.7421        34050         3700 
 6820000    1.0419667   -3.1123993      1728000    1114.5343        34100         3700 
 6830000   0.97238549   -3.2741887      1728000    1116.3401        34150         3701 
 6840000   0.98530829   -3.0660256      1728000    1118.0971        34200         3702 
 6850000   0.95000725   -3.1251393      1728000     1119.869        34250         3703 
 6860000    1.0589642   -3.1421443      1728000    1121.6473        34300         3705 
 6870000   0.96417444   -3.2976003      1728000    1123.4262        34350         3706 
 6880000    1.0474672   -3.2202126      1728000    1125.2112        34400         3709 
 6890000   0.97274631    -3.218467      1728000    1126.9902        34450         3710 
 6900000    1.0179999   -3.1955863      1728000    1128.7592        34500         3713 
 6910000    1.0155387   -3.1191637      1728000    1130.5492        34550         3714 
 6920000   0.95801707   -3.2726279      1728000    1132.3213        34600         3716 
 6930000    1.0293104   -3.3075094      1728000    1134.1023        34650         3718 
 6940000    1.0205801   -3.1288165      1728000    1135.8823        34700         3719 
 6950000    1.0064741   -3.2365054      1728000    1137.6433        34750         3720 
 6960000    1.0034625   -3.1430924      1728000    1139.4251        34800         3722 
 6970000    1.0262893   -3.1939405      1728000    1141.1924        34850         3723 
 6980000    1.0306365   -3.1568439      1728000    1142.9535        34900         3724 
 6990000    1.0114562   -3.1229246      1728000    1144.7153        34950         3726 
 7000000    1.0760452   -3.2069073      1728000    1146.5072        35000         3727 
 7010000   0.99340048   -3.2468799      1728000    1148.2741        35050         3730 
 7020000   0.96505366   -3.2239043      1728000    1150.0372        35100         3731 
 7030000    1.0248303   -3.2181087      1728000    1151.9081        35150         3731 
 7040000    1.0212581   -3.1035672      1728000    1153.7662        35200         3734 
 7050000     1.076783   -3.2055076      1728000    1155.5843        35250         3737 
 7060000   0.99513781   -3.2492717      1728000    1157.5323        35300         3738 
 7070000   0.98236153   -3.2165936      1728000    1159.3944        35350         3740 
 7080000   0.93965516   -3.1431571      1728000    1161.3314        35400         3744 
 7090000    0.9881463   -3.2370567      1728000    1163.1905        35450         3747 
 7100000    1.0810962   -3.2512649      1728000    1165.0226        35500         3749 
 7110000    1.0414556    -3.105627      1728000    1166.8192        35550         3751 
 7120000    1.0310985   -3.2398267      1728000    1168.6047        35600         3752 
 7130000   0.96451045   -3.2003509      1728000    1170.4069        35650         3756 
 7140000    1.0614309   -3.0744042      1728000    1172.2055        35700         3759 
 7150000    1.0279112   -3.2075583      1728000    1174.0146        35750         3759 
 7160000     1.052103   -3.1542411      1728000    1175.7933        35800         3761 
 7170000   0.95913435   -3.2578379      1728000    1177.5362        35850         3763 
 7180000    1.0659557   -3.1588354      1728000    1179.3093        35900         3765 
 7190000    1.0372166   -3.0280467      1728000    1181.0822        35950         3766 
 7200000    1.0105672    -3.175312      1728000    1182.8838        36000         3768 
 7210000   0.95957364   -3.2301279      1728000    1184.6384        36050         3771 
 7220000    0.9394946   -3.2468226      1728000    1186.4061        36100         3773 
 7230000    1.0065329   -3.2248195      1728000    1188.1722        36150         3776 
 7240000   0.93851204     -3.26313      1728000    1189.9636        36200         3777 
 7250000    1.0543973   -3.1210883      1728000    1191.7605        36250         3780 
 7260000    1.0629566   -3.1774608      1728000    1193.5418        36300         3780 
 7270000    0.9789881   -3.1334005      1728000    1195.2962        36350         3780 
 7280000    1.0314398   -3.1004379      1728000    1197.0616        36400         3781 
 7290000    1.0359561   -3.2353252      1728000    1198.8473        36450         3784 
 7300000    1.0082961   -3.2494727      1728000    1200.6245        36500         3787 
 7310000    1.0417393   -3.2637691      1728000    1202.4387        36550         3789 
 7320000   0.94494166   -3.2012359      1728000    1204.2291        36600         3790 
 7330000   0.92390758   -3.1276872      1728000    1206.0054        36650         3791 
 7340000    1.0001769   -3.2281971      1728000    1207.7772        36700         3793 
 7350000    1.0036269    -3.096498      1728000    1209.5402        36750         3796 
 7360000    1.0397744   -3.1116026      1728000    1211.3054        36800         3799 
 7370000    1.0294041   -3.1614709      1728000    1213.0744        36850         3801 
 7380000    1.0052842   -3.1062452      1728000     1214.832        36900         3802 
 7390000    1.0040609   -3.1369388      1728000    1216.6044        36950         3803 
 7400000   0.98242684   -3.1895291      1728000    1218.3595        37000         3807 
 7410000    1.0218177   -3.2077418      1728000    1220.1393        37050         3808 
 7420000   0.96207734   -3.1402902      1728000    1221.8953        37100         3813 
 7430000   0.95793722   -3.1766235      1728000    1223.6493        37150         3815 
 7440000    1.0197717    -3.247919      1728000    1225.3973        37200         3817 
 7450000   0.97582299   -3.1914589      1728000    1227.1663        37250         3817 
 7460000   0.98647123   -3.2264931      1728000    1228.9332        37300         3819 
 7470000    1.0382914   -3.1150877      1728000    1230.6944        37350         3822 
 7480000    1.0354803    -3.045305      1728000    1232.4544        37400         3825 
 7490000   0.99464654   -3.0290159      1728000    1234.1933        37450         3828 
 7500000    1.0608777    -3.258437      1728000    1235.9445        37500         3832 
 7510000   0.93249802   -3.1465232      1728000    1237.6971        37550         3835 
 7520000   0.92980821   -3.2807966      1728000    1239.4284        37600         3840 
 7530000   0.91155169   -3.0280405      1728000    1241.1822        37650         3842 
 7540000    0.9731913   -3.1725199      1728000    1242.9285        37700         3844 
 7550000    1.0890063   -3.1181524      1728000    1244.6953        37750         3850 
 7560000    1.0242131   -3.1308947      1728000    1246.4616        37800         3853 
 7570000    1.0539009   -3.0867073      1728000    1248.2033        37850         3855 
 7580000    1.0026728   -2.9721341      1728000    1249.9384        37900         3855 
 7590000   0.96396056   -3.0708513      1728000    1251.6852        37950         3855 
 7600000   0.95510642   -3.2633362      1728000    1253.4632        38000         3858 
 7610000    0.9479596    -3.102809      1728000    1255.2635        38050         3861 
 7620000    1.0050087   -3.1154523      1728000    1257.0795        38100         3861 
 7630000   0.98899092   -3.1441759      1728000    1258.8953        38150         3865 
 7640000   0.98572787   -3.0789636      1728000    1260.6923        38200         3868 
 7650000     1.029126   -3.1110295      1728000    1262.5155        38250         3870 
 7660000    1.0116053   -3.0178567      1728000    1264.3576        38300         3872 
 7670000   0.97575158   -3.0824416      1728000    1266.1737        38350         3873 
 7680000   0.97323108   -3.2041019      1728000    1267.9929        38400         3874 
 7690000     1.024149   -3.1600202      1728000     1269.836        38450         3874 
 7700000    1.0276893   -3.2876296      1728000     1271.751        38500         3875 
 7710000   0.99693905   -3.1379233      1728000    1273.5981        38550         3878 
[...]
47970000    1.0652445   -3.1827521      1728000    8492.6501       239850        10536 
47980000    1.0225787   -3.1743276      1728000    8494.4723       239900        10537 
47990000    1.0617408   -3.2441209      1728000    8496.2982       239950        10539 
48000000    1.0288624   -3.1418143      1728000    8498.1231       240000        10542 
48010000   0.99038194   -3.3486234      1728000    8499.9329       240050        10543 
48020000    1.0178516   -3.0000947      1728000    8501.8156       240100        10546 
48030000   0.99745293   -3.2321062      1728000    8503.6259       240150        10547 
48040000   0.97964339   -3.2008938      1728000    8505.4291       240200        10548 
48050000   0.98591467   -3.1955449      1728000    8507.2271       240250        10549 
48060000   0.96960913   -3.2419522      1728000    8509.0772       240300        10549 
48070000    1.0415607   -3.2387705      1728000    8510.9002       240350        10551 
48080000   0.99574682   -3.2141227      1728000    8512.7272       240400        10554 
48090000    1.0280587   -3.1934424      1728000    8514.5646       240450        10555 
48100000    1.0147819   -3.1899403      1728000    8516.4011       240500        10557 
48110000   0.93037904   -3.2763021      1728000     8518.206       240550        10558 
48120000   0.97634902   -3.1967245      1728000    8520.0132       240600        10559 
48130000    1.0016185   -3.1759139      1728000    8521.9754       240650        10560 
48140000   0.99592701   -3.2412033      1728000    8523.8441       240700        10566 
48150000   0.97227095   -3.2981046      1728000    8525.6852       240750        10568 
48160000   0.95787422   -3.2639937      1728000    8527.5221       240800        10569 
48170000   0.93597661    -3.142445      1728000    8529.3581       240850        10571 
48180000    1.0216265    -3.232745      1728000    8531.1903       240900        10571 
48190000    1.0228855   -3.1803442      1728000     8533.047       240950        10573 
48200000   0.99124454   -3.2243219      1728000    8535.0123       241000        10573 
48210000   0.97760055   -3.2414089      1728000    8536.9441       241050        10576 
48220000    1.0155455   -3.1278841      1728000    8538.7584       241100        10581 
48230000    1.0040741   -3.1745572      1728000    8540.6073       241150        10583 
48240000    1.0286276   -3.3532592      1728000    8542.4725       241200        10584 
48250000    1.0318128   -3.1431538      1728000    8544.3334       241250        10585 
48260000    1.0008217   -3.2152177      1728000    8546.1861       241300        10587 
48270000    1.0364165   -3.2823759      1728000    8548.0301       241350        10587 
48280000    1.0411384   -3.2578785      1728000    8549.9082       241400        10589 
48290000    1.0245241   -3.2879243      1728000    8551.7342       241450        10591 
48300000    1.0038599   -3.3216864      1728000    8553.5712       241500        10593 
48310000    1.0404094   -3.0996552      1728000    8555.3904       241550        10594 
48320000   0.99615867   -3.2059888      1728000    8557.2052       241600        10596 
48330000   0.95652735   -3.1573902      1728000    8559.0716       241650        10598 
48340000   0.92893539   -3.3004049      1728000    8560.9502       241700        10598 
48350000   0.97526605   -3.2204484      1728000    8562.7811       241750        10600 
48360000   0.94505856    -3.217774      1728000    8564.5943       241800        10603 
48370000   0.92983661   -3.2076699      1728000    8566.4162       241850        10604 
48380000   0.94934371   -3.1852231      1728000    8568.2272       241900        10605 
48390000   0.94145258    -3.324949      1728000    8570.0701       241950        10608 
48400000   0.98231335   -3.1460392      1728000    8571.9104       242000        10608 
48410000   0.96952746   -3.2556398      1728000    8573.7277       242050        10611 
48420000   0.98469566   -3.2294225      1728000    8575.5532       242100        10612 
48430000   0.95018173   -3.1736179      1728000    8577.3701       242150        10612 
48440000    1.0386547   -3.1521307      1728000    8579.1732       242200        10614 
48450000    1.0038255   -3.0440198      1728000    8580.9824       242250        10615 
48460000    1.0388947   -3.2232759      1728000    8582.7782       242300        10617 
48470000    1.0017196   -3.2415579      1728000    8584.6012       242350        10618 
48480000    1.0115492   -3.3026271      1728000    8586.4431       242400        10620 
48490000   0.98345605   -3.3039551      1728000    8588.2602       242450        10622 
48500000   0.99129751   -3.2996871      1728000    8590.1207       242500        10622 
48510000   0.94467757   -3.1986577      1728000    8591.9531       242550        10623 
48520000   0.95973257   -3.1410799      1728000    8593.7824       242600        10625 
48530000   0.94658511   -3.1317856      1728000    8595.5992       242650        10626 
48540000   0.98068598   -3.2165095      1728000    8597.4392       242700        10627 
48550000   0.94211925   -3.3551655      1728000    8599.2413       242750        10628 
48560000    1.0032077   -3.3058089      1728000    8601.0692       242800        10628 
48570000     1.015159   -3.3094537      1728000    8602.8911       242850        10631 
48580000    1.0402979   -3.2935709      1728000    8604.7103       242900        10631 
48590000     1.037491    -3.235803      1728000    8606.5162       242950        10634 
48600000   0.98444688   -3.2648455      1728000    8608.3312       243000        10635 
48610000    1.0706561   -3.3673434      1728000    8610.1442       243050        10639 
48620000   0.94345871   -3.2317641      1728000    8611.9684       243100        10640 
48630000    1.0835712   -3.2830796      1728000    8613.7763       243150        10641 
48640000     1.010088   -3.3676717      1728000    8615.6573       243200        10641 
48650000    1.0213567   -3.3649305      1728000    8617.4837       243250        10642 
48660000   0.99959187   -3.1966179      1728000    8619.2833       243300        10644 
48670000    1.0115009   -3.1265944      1728000    8621.1133       243350        10645 
48680000   0.98510028   -3.2050538      1728000    8622.9218       243400        10645 
48690000    1.0009849   -3.2326876      1728000    8624.7531       243450        10647 
48700000   0.97782427   -3.2353217      1728000    8626.6343       243500        10652 
48710000    1.0180063   -3.1382692      1728000    8628.4501       243550        10652 
48720000    1.0196022   -3.0936673      1728000    8630.2401       243600        10655 
48730000    1.0238109   -3.1373807      1728000    8632.0701       243650        10658 
48740000    1.0266917   -3.2566475      1728000    8633.8722       243700        10658 
48750000   0.97367153   -3.2335654      1728000     8635.702       243750        10662 
48760000    1.1085924   -3.1217508      1728000    8637.5516       243800        10664 
48770000   0.97942701    -3.256177      1728000    8639.3753       243850        10665 
48780000   0.96527031   -3.1469844      1728000    8641.1726       243900        10665 
48790000   0.93790973    -3.388486      1728000    8642.9892       243950        10666 
48800000   0.94864878   -3.2924335      1728000    8644.8305       244000        10667 
48810000     1.019901   -3.1775567      1728000    8646.6302       244050        10669 
48820000   0.95075564   -3.1745977      1728000    8648.4369       244100        10669 
48830000     1.105783   -3.2427524      1728000    8650.2603       244150        10671 
48840000    1.1390308   -3.2634004      1728000    8652.0859       244200        10675 
48850000   0.98652734   -3.1611911      1728000    8653.8889       244250        10678 
48860000   0.94776301   -3.1963298      1728000    8655.7193       244300        10679 
48870000   0.98492596   -3.1607472      1728000    8657.5287       244350        10682 
48880000    1.0663828    -3.276152      1728000    8659.3184       244400        10684 
48890000   0.95993407   -3.2825042      1728000      8661.13       244450        10684 
48900000   0.98612452   -3.1973862      1728000    8662.9792       244500        10684 
48910000   0.93137814   -3.3074127      1728000    8664.7723       244550        10684 
48920000    1.0236692   -3.1292494      1728000    8666.5883       244600        10686 
48930000   0.97468931   -3.0249949      1728000    8668.3923       244650        10686 
48940000     1.046432   -3.1428377      1728000    8670.1676       244700        10689 
48950000    1.0090735     -3.21514      1728000    8672.0284       244750        10689 
48960000    1.0152179   -3.2003448      1728000    8673.8253       244800        10690 
48970000    1.0217378   -3.2913218      1728000    8675.6223       244850        10695 
48980000    1.0945508   -3.2028506      1728000    8677.4233       244900        10696 
48990000    1.0543471   -3.0588898      1728000    8679.2153       244950        10697 
49000000    1.0036089   -3.1002788      1728000    8681.0543       245000        10697 
49010000    1.0011988   -3.1628084      1728000    8682.8452       245050        10698 
49020000    1.0640698   -3.2681786      1728000    8684.6453       245100        10700 
49030000   0.99082268   -3.2314735      1728000    8686.4573       245150        10702 
49040000   0.98734109   -3.1878359      1728000    8688.2892       245200        10705 
49050000   0.95805834    -3.215517      1728000    8690.0821       245250        10707 
49060000    0.9907612   -3.2565857      1728000    8691.8786       245300        10710 
49070000   0.96195865   -3.1092756      1728000    8693.6613       245350        10711 
49080000    1.0139214     -3.23592      1728000    8695.4642       245400        10712 
49090000   0.94257054   -3.1559603      1728000    8697.2633       245450        10713 
49100000    1.0167756   -3.2231459      1728000    8699.0663       245500        10716 
49110000    1.0055849   -3.0991942      1728000    8700.8734       245550        10720 
49120000    1.0200644   -3.1655345      1728000    8702.6733       245600        10721 
49130000   0.98961466    -3.275915      1728000    8704.5345       245650        10722 
49140000   0.95455083   -3.2956633      1728000    8706.3573       245700        10724 
49150000   0.99907786   -3.2735115      1728000    8708.1654       245750        10724 
49160000    1.0135582   -3.2056999      1728000    8710.0004       245800        10725 
49170000   0.94789567   -3.2162602      1728000    8711.7993       245850        10726 
49180000    1.0213279   -3.1855917      1728000     8713.646       245900        10728 
49190000   0.93691282   -3.1241316      1728000    8715.5314       245950        10731 
49200000     1.042011    -3.260791      1728000    8717.5063       246000        10732 
49210000    1.0086359    -3.273295      1728000    8719.4233       246050        10733 
49220000    1.0692692   -3.1923267      1728000    8721.2382       246100        10734 
49230000    1.0193252   -3.0907266      1728000     8723.038       246150        10735 
49240000   0.98848275   -3.1993601      1728000     8724.832       246200        10738 
49250000   0.97013819   -3.1941826      1728000    8726.6312       246250        10739 
49260000   0.94232698    -3.115847      1728000    8728.4036       246300        10741 
49270000    1.0037889   -3.2249608      1728000    8730.2194       246350        10743 
49280000    1.0765208   -3.2578336      1728000    8732.0376       246400        10743 
49290000    1.0129569   -3.3198788      1728000    8733.8762       246450        10744 
49300000    1.0114121    -3.246662      1728000    8735.7028       246500        10746 
49310000    1.0263255   -3.2075862      1728000     8737.506       246550        10747 
49320000    1.0004664    -3.353137      1728000    8739.3094       246600        10748 
49330000    1.0166539   -3.1157149      1728000    8741.1276       246650        10750 
49340000    1.0343823   -3.2229416      1728000    8742.9086       246700        10751 
49350000   0.94760123   -3.1809864      1728000    8744.7058       246750        10754 
49360000   0.99231153   -3.2735294      1728000    8746.5266       246800        10756 
49370000    1.0546319   -3.3358278      1728000    8748.3304       246850        10758 
49380000    1.0377546     -3.21458      1728000    8750.1273       246900        10759 
49390000    1.0295078   -3.2448894      1728000    8751.9517       246950        10760 
49400000    1.0298246    -3.286162      1728000     8753.785       247000        10760 
49410000   0.96650385   -3.2114573      1728000    8755.5781       247050        10761 
49420000    1.0485006   -3.1685183      1728000    8757.3804       247100        10761 
49430000   0.95244477   -3.2690154      1728000    8759.1864       247150        10762 
49440000   0.97706145   -3.1701849      1728000    8760.9863       247200        10764 
49450000    1.0459367   -3.2140763      1728000    8762.8003       247250        10766 
49460000   0.95816356    -3.248878      1728000    8764.6301       247300        10766 
49470000     1.017202   -3.2348544      1728000    8766.4467       247350        10767 
49480000   0.99229022   -3.1843444      1728000    8768.2583       247400        10767 
49490000   0.95777962   -3.2875457      1728000    8770.0715       247450        10767 
49500000    1.0279265   -3.2508304      1728000    8771.8961       247500        10769 
49510000    1.0160424   -3.3356308      1728000    8773.7246       247550        10770 
49520000    1.0369205   -3.3716086      1728000    8775.5805       247600        10772 
49530000    1.0103896   -3.2668926      1728000    8777.4094       247650        10774 
49540000   0.97855775   -3.2823625      1728000    8779.2294       247700        10776 
49550000   0.92907633   -3.1647395      1728000    8781.1472       247750        10779 
49560000    1.0000045   -3.3222478      1728000    8783.2123       247800        10781 
49570000   0.98454011   -3.0771382      1728000    8784.9785       247850        10782 
49580000     1.018872   -3.2518851      1728000     8786.821       247900        10784 
49590000    1.0320326   -3.2801869      1728000    8788.7395       247950        10785 
49600000   0.97752314   -3.1027256      1728000    8790.6814       248000        10785 
49610000   0.97873175   -3.3015519      1728000    8792.5905       248050        10789 
49620000   0.98353548   -3.2446225      1728000    8794.4975       248100        10791 
49630000    1.0713144   -3.1881684      1728000    8796.3208       248150        10792 
49640000   0.94888397   -3.3243539      1728000    8798.2883       248200        10794 
49650000   0.97272345   -3.2628888      1728000    8800.1985       248250        10796 
49660000    1.0348435   -3.2487097      1728000    8802.1599       248300        10796 
49670000   0.94517543   -3.3333137      1728000    8804.1056       248350        10796 
49680000    1.0173526   -3.2792188      1728000    8806.1142       248400        10798 
49690000   0.96075093   -3.4014436      1728000    8808.0562       248450        10801 
49700000    1.0018794   -3.3425411      1728000    8810.0642       248500        10802 
49710000    1.0539915   -3.1846875      1728000    8812.0532       248550        10805 
49720000   0.96989159   -3.2569237      1728000    8813.9651       248600        10806 
49730000   0.91110998   -3.2018142      1728000    8815.8916       248650        10807 
49740000    1.0584235   -3.2402905      1728000    8817.8678       248700        10809 
49750000    1.0002503   -3.2641066      1728000    8819.7449       248750        10810 
49760000   0.99773906   -3.2766775      1728000    8821.6544       248800        10813 
49770000   0.93804076   -3.2583236      1728000    8823.6177       248850        10813 
49780000    0.9949504   -3.3157145      1728000    8825.6291       248900        10815 
49790000    1.0248562   -3.3706928      1728000    8827.5949       248950        10816 
49800000   0.95621237   -3.3104498      1728000    8829.5716       249000        10816 
49810000    1.0598394   -3.1927525      1728000    8831.5303       249050        10816 
49820000    1.0046713   -3.2810623      1728000    8833.4974       249100        10816 
49830000     1.024926   -3.2411743      1728000    8835.4992       249150        10816 
49840000   0.99543534   -3.3408242      1728000    8837.4871       249200        10816 
49850000    0.9985041   -3.4239609      1728000    8839.4313       249250        10816 
49860000    1.0608792   -3.2179784      1728000    8841.4372       249300        10818 
49870000   0.96477304   -3.1674771      1728000    8843.4225       249350        10819 
49880000    1.0451116   -3.3605383      1728000    8845.4125       249400        10820 
49890000    1.0225958   -3.3227531      1728000    8847.4376       249450        10821 
49900000    1.0470196   -3.2895384      1728000    8849.4004       249500        10823 
49910000   0.99980326   -3.3268163      1728000    8851.3364       249550        10824 
49920000    1.0366709   -3.2748489      1728000    8853.2951       249600        10825 
49930000    1.0398887   -3.2976272      1728000    8855.2802       249650        10826 
49940000    1.0291301   -3.3129622      1728000    8857.2517       249700        10827 
49950000   0.99672498   -3.3112336      1728000    8859.2458       249750        10829 
49960000    1.0325331   -3.2295275      1728000    8861.2144       249800        10831 
49970000    1.0374138   -3.2451258      1728000    8863.1801       249850        10833 
49980000    1.0227206   -3.1985741      1728000    8865.1172       249900        10835 
49990000    1.0259108   -3.2663871      1728000    8867.0818       249950        10836 
50000000    1.0458805   -3.3580537      1728000    8869.0672       250000        10839 
Loop time of 8869.07 on 1 procs for 50000000 steps with 500 atoms

Performance: 4870860.633 tau/day, 5637.570 timesteps/s
99.4% CPU use with 1 MPI tasks x 1 OpenMP threads

MPI task timing breakdown:
Section |  min time  |  avg time  |  max time  |%varavg| %total
---------------------------------------------------------------
Pair    | 4412.9     | 4412.9     | 4412.9     |   0.0 | 49.76
Bond    | 1064.3     | 1064.3     | 1064.3     |   0.0 | 12.00
Neigh   | 1564.1     | 1564.1     | 1564.1     |   0.0 | 17.64
Comm    | 33.296     | 33.296     | 33.296     |   0.0 |  0.38
Output  | 21.481     | 21.481     | 21.481     |   0.0 |  0.24
Modify  | 1710.5     | 1710.5     | 1710.5     |   0.0 | 19.29
Other   |            | 62.42      |            |       |  0.70

Nlocal:    500 ave 500 max 500 min
Histogram: 1 0 0 0 0 0 0 0 0 0
Nghost:    0 ave 0 max 0 min
Histogram: 1 0 0 0 0 0 0 0 0 0
Neighs:    14435 ave 14435 max 14435 min
Histogram: 1 0 0 0 0 0 0 0 0 0

Total # of neighbors = 14435
Ave neighs/atom = 28.87
Ave special neighs/atom = 5.976
Neighbor list builds = 2565363
Dangerous builds = 0

################
## ULOOP    ####
################
clear
OMP_NUM_THREADS environment is not set. Defaulting to 1 thread. (../comm.cpp:87)
  using 1 OpenMP thread(s) per MPI task
variable rname delete
variable simname delete
variable folder delete
variable seed delete
variable E delete
variable RW delete
variable SimOutType delete
variable SimInType delete
variable jn delete
variable jf delete

next jbn
Increment via next: value 2 on partition 0
jump SELF #last line!!!

### If e.g. I run this on 10 partitions of 1 processor,
### and initialise the variable with 'uloop N'
### it will run 10 simulations with 'jobnumber' taking
### values 1-10. Then when a particular simulation finishes, the
### script will be run again with the next value of jobnumber,
### until N simulations have been run.
## SO ULOOP IS "SERIAL" BUT FOR SURE 10x1 PROCs ARE ALWAYS BUSY
Total wall time: 2:27:58
