LAMMPS (1 Feb 2019)
OMP_NUM_THREADS environment is not set. Defaulting to 1 thread. (../comm.cpp:87)
  using 1 OpenMP thread(s) per MPI task
####################################
####	ULOOP			####
####################################
variable jbn uloop 1  # run n simulations
variable startfrom equal 0
variable jn equal ${jbn}+${startfrom}
variable jn equal 1+${startfrom}
variable jn equal 1+0
print ${jn}
print 1
1
variable seed equal (${jn}+4)*51-2*${jbn}
variable seed equal (1+4)*51-2*${jbn}
variable seed equal (1+4)*51-2*1
variable seedr equal (${jn}+2)*22
variable seedr equal (1+2)*22

#
variable N equal 2000
timestep 0.01
variable Dt equal 100000
variable Temp equal 1.0
variable Norm equal 0.88585294441338
if "${jn} <= 2" then "variable E equal 1.5"
variable E equal 1.5
if "${jn} > 2 && ${jn} <= 4" then "variable E equal 1.5"
if "${jn} > 4 && ${jn} <= 6" then "variable E equal 2.0"
if "${jn} > 6 && ${jn} <= 8" then "variable E equal 2.5"
if "${jn} > 8 && ${jn} <= 10" then "variable E equal 3.0"
if "${jn} > 10 && ${jn} <= 12" then "variable E equal 3.5"
if "${jn} > 12 && ${jn} <= 14" then "variable E equal 4.0"
if "${jn} > 14 && ${jn} <= 16" then "variable E equal 4.5"
if "${jn} > 16 && ${jn} <= 18" then "variable E equal 5.0"

#
####################################
####	DEFINTIONS 	########
####################################
#
variable N equal 500
variable folder index RW_Dt${Dt}_E${E}
variable folder index RW_Dt100000_E${E}
variable folder index RW_Dt100000_E1.5
shell mkdir ${folder}
shell mkdir RW_Dt100000_E1.5
WARNING: Shell command 'mkdir' failed with error 'File exists' (../input.cpp:1287)
variable SimOutType index RW${jn}Dt${Dt}E${E}
variable SimOutType index RW1Dt${Dt}E${E}
variable SimOutType index RW1Dt100000E${E}
variable SimOutType index RW1Dt100000E1.5
variable rname index INIT/Poly.N${N}.dat
variable rname index INIT/Poly.N500.dat
variable simname index Poly.N${N}.${SimOutType}
variable simname index Poly.N500.${SimOutType}
variable simname index Poly.N500.RW1Dt100000E1.5
#
units lj
atom_style angle
boundary        p p p
neighbor 1.3 bin
neigh_modify every 5 delay 5 check yes
#
restart 1000000 ${folder}/Restart.neutr.${simname}.
restart 1000000 RW_Dt100000_E1.5/Restart.neutr.${simname}.
restart 1000000 RW_Dt100000_E1.5/Restart.neutr.Poly.N500.RW1Dt100000E1.5.
print ${rname}
print INIT/Poly.N500.dat
INIT/Poly.N500.dat
read_data ${rname}
read_data INIT/Poly.N500.dat
  orthogonal box = (-50 -50 -50) to (50 50 50)
  1 by 1 by 1 MPI processor grid
  reading atoms ...
  500 atoms
  scanning bonds ...
  1 = max bonds/atom
  scanning angles ...
  1 = max angles/atom
  reading bonds ...
  499 bonds
  reading angles ...
  498 angles
  2 = max # of 1-2 neighbors
  2 = max # of 1-3 neighbors
  4 = max # of 1-4 neighbors
  6 = max # of special neighbors

####################################
####	GROUPS	             #######
####################################
group blue type 1
500 atoms in group blue
group red type 2
0 atoms in group red
group grey type 3
0 atoms in group grey

change_box all x final -60 60 y final -60 60 z final -60 60 boundary f f f units box
  orthogonal box = (-60 -50 -50) to (60 50 50)
  orthogonal box = (-60 -60 -50) to (60 60 50)
  orthogonal box = (-60 -60 -60) to (60 60 60)

####################################
####	ANGLE	             #######
####################################
angle_style   cosine
angle_coeff  1 3.0  #20 sigma for realistic DNA (1 bead = 2.5 nm)

####################################
####	PAIRS	             #######
####################################
pair_style  soft 2.5
pair_modify     shift yes
pair_coeff      * * 20 1.12246152962189

variable prefactor equal ramp(0,50)
fix pushapart all adapt 1 pair soft a * * v_prefactor

####################################
####	FENE	             #######
####################################
bond_style   fene
special_bonds fene#<=== I M P O R T A N T (new command)
  2 = max # of 1-2 neighbors
  6 = max # of special neighbors
bond_coeff   1  30.0   1.6  1.0  1.0

####################################
####	FIXES	             #######
####################################
fix 1 all   nve
fix 2 all  langevin   1.0 1.0   1.0   ${seed}
fix 2 all  langevin   1.0 1.0   1.0   253

####################################
####	WALL	             #######
####################################
fix WALL all wall/lj126 xhi EDGE 1.0 1.0 1.122462048 xlo EDGE 1.0 1.0 1.122462048 yhi EDGE 1.0 1.0 1.122462048 ylo EDGE 1.0 1.0 1.122462048 zhi EDGE 1.0 1.0 1.122462048 zlo EDGE 1.0 1.0 1.122462048 units box

####################################
####	RESET TIME             #######
####################################
reset_timestep 0

####################################
####	SWAP - ATOMS         #######
####################################
##HERE I USE fix atom/swap to attempt an atom swap between types
## In theory, I don't need to do a loop as the fix does it every
## N timesteps
##FIRST Dt IS NOT SWAPPING ANYWAY!
group Polymer type 1 2 3
500 atoms in group Polymer
fix Aswap Polymer atom/swap ${Dt} ${N} ${seed} ${Temp} semi-grand yes types 1 2 3 mu 0.0 0.0 0.0
fix Aswap Polymer atom/swap 100000 ${N} ${seed} ${Temp} semi-grand yes types 1 2 3 mu 0.0 0.0 0.0
fix Aswap Polymer atom/swap 100000 500 ${seed} ${Temp} semi-grand yes types 1 2 3 mu 0.0 0.0 0.0
fix Aswap Polymer atom/swap 100000 500 253 ${Temp} semi-grand yes types 1 2 3 mu 0.0 0.0 0.0
fix Aswap Polymer atom/swap 100000 500 253 1 semi-grand yes types 1 2 3 mu 0.0 0.0 0.0
variable Swaps equal f_Aswap[2]/1.0
variable Attempts equal f_Aswap[1]/1.0

####################################
####    THERMO AND INTEGRATION
####################################
timestep 0.01
thermo 10000
thermo_style   custom   step  temp  epair vol cpu v_Attempts v_Swaps

####################################
####	EQUILIBRATION        #######
####################################
#THIS IS TO TEST
#PUT LARGER NUMBER WHEN DOING ACTUAL SIMULATIONS
run 100000
Neighbor list info ...
  update every 5 steps, delay 5 steps, check yes
  max neighbors/atom: 2000, page size: 100000
  master list distance cutoff = 2.42246
  ghost atom cutoff = 2.42246
  binsize = 1.21123, bins = 100 100 100
  1 neighbor lists, perpetual/occasional/extra = 1 0 0
  (1) pair soft, perpetual
      attributes: half, newton on
      pair build: half/bin/newton
      stencil: half/bin/3d/newton
      bin: standard
Per MPI rank memory allocation (min/avg/max) = 9.234 | 9.234 | 9.234 Mbytes
Step Temp E_pair Volume CPU v_Attempts v_Swaps 
       0            0            0      1728000            0            0            0 
   10000    1.0294079 0.0064934185      1728000    1.1424279          500          500 
   20000    0.9987672   0.01265543      1728000     2.116662          500          500 
   30000    1.0377049 0.0053002516      1728000     3.053041          500          500 
   40000   0.96298537   0.00420477      1728000     3.978956          500          500 
   50000   0.95514074 4.5880284e-05      1728000     4.935008          500          500 
   60000   0.97827728 4.9670865e-05      1728000    5.8282411          500          500 
   70000   0.96772811 0.00068691548      1728000     6.739372          500          500 
   80000    1.0272917 0.0015087736      1728000     7.664413          500          500 
   90000    1.0539828 0.0015163033      1728000    8.5690939          500          500 
  100000   0.98519253 0.0023363482      1728000    9.4496419          500          500 
Loop time of 9.45164 on 1 procs for 100000 steps with 500 atoms

Performance: 9141271.749 tau/day, 10580.176 timesteps/s
99.4% CPU use with 1 MPI tasks x 1 OpenMP threads

MPI task timing breakdown:
Section |  min time  |  avg time  |  max time  |%varavg| %total
---------------------------------------------------------------
Pair    | 0.57135    | 0.57135    | 0.57135    |   0.0 |  6.05
Bond    | 2.6067     | 2.6067     | 2.6067     |   0.0 | 27.58
Neigh   | 3.0907     | 3.0907     | 3.0907     |   0.0 | 32.70
Comm    | 0.13       | 0.13       | 0.13       |   0.0 |  1.38
Output  | 0.016956   | 0.016956   | 0.016956   |   0.0 |  0.18
Modify  | 2.8842     | 2.8842     | 2.8842     |   0.0 | 30.52
Other   |            | 0.1516     |            |       |  1.60

Nlocal:    500 ave 500 max 500 min
Histogram: 1 0 0 0 0 0 0 0 0 0
Nghost:    0 ave 0 max 0 min
Histogram: 1 0 0 0 0 0 0 0 0 0
Neighs:    847 ave 847 max 847 min
Histogram: 1 0 0 0 0 0 0 0 0 0

Total # of neighbors = 847
Ave neighs/atom = 1.694
Ave special neighs/atom = 1.996
Neighbor list builds = 4475
Dangerous builds = 0


unfix pushapart
unfix Aswap
reset_timestep 0

#######################################################
####	PAIRS -- REPULSIVE + REDS FERROMAGN 	#######
#######################################################
#ENERGYSCALE
variable Et equal ${E}/${Norm}
variable Et equal 1.5/${Norm}
variable Et equal 1.5/0.88585294441338

pair_style  lj/cut 1.8
pair_modify     shift yes
pair_coeff      * *  1.0 1.0 1.12246152962189

pair_coeff      1 1  ${Et} 1.0 1.8
pair_coeff      1 1  1.69328330335157 1.0 1.8
pair_coeff      1 2  1.0 1.0 1.12246152962189
pair_coeff      1 3  1.0 1.0 1.12246152962189

pair_coeff      2 2  ${Et} 1.0 1.8
pair_coeff      2 2  1.69328330335157 1.0 1.8
pair_coeff      2 3  1.0 1.0 1.12246152962189

pair_coeff      3 3  1.0 1.0 1.12246152962189
#######################################################


########################
## PER PRIMI VICINI   ##
########################
bond_style harmonic
special_bonds lj 1 1 1
  2 = max # of 1-2 neighbors
  2 = max # of 1-3 neighbors
  4 = max # of 1-4 neighbors
  6 = max # of special neighbors
bond_coeff 1 200 1.12246
#bond_style fene
#special_bonds fene
#bond_coeff 1 30 1.6 1.0 1.0

########################
## RECOLOR #############
########################
group Polymer type 1 2 3
500 atoms in group Polymer
variable smooth equal 10
variable dtsmooth equal ${Dt}/${smooth}
variable dtsmooth equal 100000/${smooth}
variable dtsmooth equal 100000/10
variable Nsmooth equal ${N}/${smooth}
variable Nsmooth equal 500/${smooth}
variable Nsmooth equal 500/10
fix Aswap Polymer atom/swap ${dtsmooth} ${Nsmooth} ${seedr} ${Temp} semi-grand yes types 1 2 3 mu 0.0 0.0 0.0
fix Aswap Polymer atom/swap 10000 ${Nsmooth} ${seedr} ${Temp} semi-grand yes types 1 2 3 mu 0.0 0.0 0.0
fix Aswap Polymer atom/swap 10000 50 ${seedr} ${Temp} semi-grand yes types 1 2 3 mu 0.0 0.0 0.0
fix Aswap Polymer atom/swap 10000 50 66 ${Temp} semi-grand yes types 1 2 3 mu 0.0 0.0 0.0
fix Aswap Polymer atom/swap 10000 50 66 1 semi-grand yes types 1 2 3 mu 0.0 0.0 0.0
variable Swaps equal f_Aswap[2]/1.0
variable Attempts equal f_Aswap[1]/1.0

####################################
####    DUMPS                 #######
####################################
##VMD
#dump 1 all custom 1000 ${folder}/${simname}.lammpstrj id mol type x y z
#dump_modify  1   format "%d %d %d %.5f %.5f %.5f"

##DAT
dump 2 all custom 100000 ${folder}/${simname}.* id type x y z ix iy iz
dump 2 all custom 100000 RW_Dt100000_E1.5/${simname}.* id type x y z ix iy iz
dump 2 all custom 100000 RW_Dt100000_E1.5/Poly.N500.RW1Dt100000E1.5.* id type x y z ix iy iz
#dump_modify   2   format "%d %d %.5f %.5f %.5f %d %d %d"

##CFG
#dump 3 all cfg 1000 ${folder}/CFG/${simname}.tot.*.cfg mass type xs ys zs id mol type
#dump_modify 3 element N C O Ca Xe

##XYZ
dump 4 all xyz 100000 XYZ_${simname}.xyz
dump 4 all xyz 100000 XYZ_Poly.N500.RW1Dt100000E1.5.xyz
dump_modify 4 element C O N Xe

###########################
thermo 10000
thermo_style   custom   step  temp  epair vol cpu v_Attempts v_Swaps
run 50000000
Neighbor list info ...
  update every 5 steps, delay 5 steps, check yes
  max neighbors/atom: 2000, page size: 100000
  master list distance cutoff = 3.1
  ghost atom cutoff = 3.1
  binsize = 1.55, bins = 78 78 78
  1 neighbor lists, perpetual/occasional/extra = 1 0 0
  (1) pair lj/cut, perpetual
      attributes: half, newton on
      pair build: half/bin/newton
      stencil: half/bin/3d/newton
      bin: standard
Per MPI rank memory allocation (min/avg/max) = 9.566 | 9.566 | 9.566 Mbytes
Step Temp E_pair Volume CPU v_Attempts v_Swaps 
       0   0.98519253    2.3011773      1728000            0            0            0 
   10000    1.0650091  -0.55715289      1728000   0.83438706           50           39 
   20000    1.0198129  -0.82091334      1728000    1.7105329          100           67 
   30000    1.0862888  -0.91409395      1728000    2.6345809          150           90 
   40000   0.97452035   -1.0028143      1728000    3.6156099          200          116 
   50000    1.0597413   -1.0835699      1728000    4.5708449          250          140 
   60000    1.0229545   -1.3691983      1728000      5.55094          300          169 
   70000    1.0157541   -1.4374483      1728000     6.581181          350          192 
   80000    1.0044506   -1.7474733      1728000     7.673043          400          217 
   90000    1.0538066   -1.7302116      1728000     8.844331          450          235 
  100000    1.0584851   -1.8844189      1728000    10.021516          500          254 
  110000    1.0000087   -1.9728369      1728000    11.178009          550          271 
  120000    1.0225271   -2.1977391      1728000    12.373703          600          291 
  130000   0.95346436   -2.4579107      1728000    13.649479          650          308 
  140000   0.99423685   -2.5346783      1728000    14.961111          700          320 
  150000    1.0467692   -2.6699428      1728000    16.357179          750          333 
  160000    1.0517589    -2.836598      1728000    17.740793          800          347 
  170000   0.94867988   -2.8495317      1728000    19.161037          850          362 
  180000   0.96125051   -3.2300416      1728000    20.630099          900          379 
  190000    1.0097253   -3.2871345      1728000    22.158146          950          389 
  200000    1.0355423   -3.3607523      1728000    23.679318         1000          398 
  210000    1.0561534   -3.5639373      1728000    25.275907         1050          407 
  220000    1.0490193    -3.604264      1728000    26.916427         1100          415 
  230000    1.0248466   -3.6156482      1728000    28.494503         1150          420 
  240000    1.0171182   -3.7218429      1728000    30.097561         1200          426 
  250000   0.97443237   -3.8752215      1728000     31.73323         1250          439 
  260000   0.93087291    -3.816962      1728000    33.384391         1300          446 
  270000    1.0250717   -4.0552956      1728000    35.039443         1350          451 
  280000    1.0143385   -3.9812393      1728000    36.716934         1400          456 
  290000   0.95912759   -3.8610496      1728000    38.364934         1450          462 
  300000   0.96337089   -3.9322844      1728000    40.002125         1500          469 
  310000     1.039329   -3.9402643      1728000     41.67853         1550          473 
  320000   0.97620973   -3.9961418      1728000     43.36281         1600          478 
  330000    1.0099853   -3.9318243      1728000    45.026766         1650          483 
  340000   0.96752311   -4.0746349      1728000    46.702994         1700          487 
  350000   0.99185668   -4.3204019      1728000    48.414318         1750          492 
  360000   0.99033744   -4.2553951      1728000    50.107757         1800          497 
  370000    1.0131633   -4.1853548      1728000    51.824165         1850          504 
  380000   0.98835564   -4.1611411      1728000    53.534692         1900          505 
  390000    1.0219435   -4.2512092      1728000    55.312015         1950          507 
  400000    1.0115585   -4.2361422      1728000    57.107894         2000          512 
  410000   0.97376828   -4.4182167      1728000    58.958573         2050          515 
  420000   0.97520675   -4.1778635      1728000    60.717252         2100          522 
  430000    1.0070665   -4.2450074      1728000    62.427967         2150          524 
  440000   0.99867382   -4.3213641      1728000    64.176439         2200          528 
  450000   0.97888014   -4.3734526      1728000    65.884855         2250          533 
  460000     1.000751   -4.3162478      1728000    67.576541         2300          537 
  470000    1.0424159   -4.4303336      1728000    69.274476         2350          540 
  480000    1.0207115   -4.3749472      1728000    71.057032         2400          541 
  490000   0.98447977    -4.428435      1728000    72.793267         2450          544 
  500000   0.95429914   -4.5513476      1728000    74.544946         2500          546 
  510000   0.97444076   -4.5592318      1728000    76.301489         2550          546 
  520000    1.0499497   -4.5248074      1728000    78.134406         2600          550 
  530000    1.0182156   -4.4694987      1728000    79.902545         2650          557 
  540000   0.94483637   -4.5483072      1728000    81.753805         2700          559 
  550000    1.0293388   -4.4911623      1728000    83.611967         2750          562 
  560000    1.0164449   -4.4493202      1728000    85.362927         2800          563 
  570000   0.96188814   -4.4684883      1728000     87.16579         2850          565 
  580000    1.0010311   -4.7240159      1728000    88.905458         2900          566 
  590000   0.98368976   -4.4344873      1728000    90.690718         2950          566 
  600000   0.95612036   -4.4912639      1728000    92.452082         3000          569 
  610000    1.0313013   -4.4820111      1728000    94.203288         3050          571 
  620000    1.0855307   -4.6564267      1728000    95.980469         3100          577 
  630000   0.99737892    -4.578665      1728000     97.69282         3150          579 
  640000    1.0246221   -4.6100515      1728000    99.396177         3200          581 
  650000   0.92620976   -4.5291292      1728000    101.11792         3250          582 
  660000    1.0106648   -4.5596893      1728000    102.83663         3300          584 
  670000    1.0159571   -4.6002537      1728000    104.55289         3350          584 
  680000    1.0331625   -4.5585202      1728000    106.26174         3400          588 
  690000    1.0166756   -4.7027547      1728000     107.9713         3450          592 
  700000   0.97640606   -4.6537422      1728000     109.6924         3500          595 
  710000    1.0242389   -4.5207007      1728000    111.41124         3550          598 
  720000    1.0076635   -4.6307904      1728000    113.12796         3600          600 
  730000    1.0430814   -4.6724832      1728000    114.83927         3650          601 
  740000    1.0096714   -4.6594837      1728000    116.56717         3700          604 
  750000   0.98773564   -4.6782872      1728000    118.29656         3750          605 
  760000    1.0190415   -4.6417296      1728000    120.01842         3800          606 
  770000    1.0537674   -4.7792963      1728000    121.73979         3850          608 
  780000    1.0469058   -4.6877172      1728000    123.46244         3900          610 
  790000     1.020906   -4.7338295      1728000    125.17556         3950          613 
  800000    1.0175727   -4.6759508      1728000    126.90947         4000          616 
  810000    1.0358858   -4.7586329      1728000    128.62956         4050          617 
  820000    1.0037706   -4.6035997      1728000    130.35136         4100          617 
  830000   0.98061647   -4.6072379      1728000     132.0676         4150          618 
  840000    1.0045728   -4.6720776      1728000    133.79829         4200          619 
  850000    1.0334275   -4.6438245      1728000     135.5124         4250          622 
  860000   0.95966149   -4.7226699      1728000    137.23612         4300          624 
  870000   0.99646999   -4.7173243      1728000    138.97724         4350          626 
  880000    1.0175678   -4.5896324      1728000    140.71118         4400          631 
  890000   0.97635766   -4.5339721      1728000     142.4283         4450          631 
  900000    1.0786486   -4.7804108      1728000    144.16424         4500          635 
  910000   0.95559911   -4.6820973      1728000    145.89634         4550          637 
  920000    1.0041115   -4.6386879      1728000    147.61922         4600          638 
  930000    1.0229047   -4.7125564      1728000    149.35224         4650          639 
  940000   0.97965698   -4.7083116      1728000     151.1053         4700          642 
  950000   0.95809042   -4.6805405      1728000    152.83404         4750          644 
  960000   0.92221408   -4.7177482      1728000    154.56445         4800          646 
  970000   0.97535822    -4.770717      1728000     156.2963         4850          646 
  980000   0.99185853   -4.7496024      1728000    158.04635         4900          646 
  990000   0.99463104   -4.7428219      1728000    159.79419         4950          646 
 1000000    0.9873599   -4.7644856      1728000    161.55438         5000          650 
 1010000    1.0446575   -4.7428011      1728000    163.28337         5050          650 
 1020000    1.0689911   -4.6709375      1728000     165.0122         5100          652 
 1030000    1.0386269     -4.76864      1728000    166.79346         5150          654 
 1040000     1.016485   -4.5637133      1728000    168.56354         5200          657 
 1050000   0.98812635   -4.6174496      1728000    170.31777         5250          661 
 1060000   0.95748049   -4.7174379      1728000    172.06562         5300          664 
 1070000    1.0257958   -4.7593665      1728000    173.81236         5350          666 
 1080000   0.98993087   -4.6720905      1728000    175.56224         5400          668 
 1090000   0.97354192   -4.7319515      1728000    177.29631         5450          670 
 1100000   0.97610638   -4.6493569      1728000    179.04953         5500          672 
 1110000    1.0141118   -4.8085117      1728000    180.79041         5550          672 
 1120000   0.97966076   -4.7989664      1728000    182.52342         5600          673 
 1130000   0.99972912   -4.6525926      1728000     184.2617         5650          674 
 1140000   0.95374888   -4.8062183      1728000    185.99416         5700          674 
 1150000    1.0415064   -4.7040189      1728000    187.73105         5750          675 
 1160000    1.0016419   -4.8007317      1728000    189.47038         5800          676 
 1170000    1.0621136   -4.7761742      1728000    191.21025         5850          676 
 1180000   0.99535667   -4.7747876      1728000    192.95748         5900          678 
 1190000   0.99999973    -4.756301      1728000    194.69324         5950          680 
 1200000    0.9966499   -4.8466135      1728000    196.46416         6000          683 
 1210000    1.0208387   -4.8458546      1728000    198.25865         6050          684 
 1220000   0.96364609    -4.854468      1728000    200.02141         6100          686 
 1230000   0.97538828   -5.0011726      1728000     201.7792         6150          687 
 1240000    1.0429617   -4.6776062      1728000    203.54695         6200          687 
 1250000   0.98236361   -4.9048257      1728000    205.31919         6250          689 
 1260000    1.0216098   -4.7598969      1728000     207.0692         6300          689 
 1270000    1.0621637   -4.8557959      1728000    208.82179         6350          690 
 1280000    1.0037799   -4.8245239      1728000    210.61226         6400          691 
 1290000   0.97383578   -4.9305414      1728000    212.37213         6450          692 
 1300000    1.0081023    -4.955539      1728000    214.14731         6500          693 
 1310000    1.0276759   -4.9127952      1728000     215.9061         6550          693 
 1320000   0.95599979   -4.9108772      1728000    217.66795         6600          694 
 1330000    1.0048424   -4.8033629      1728000    219.40917         6650          695 
 1340000   0.95815718   -4.8157322      1728000    221.14748         6700          697 
 1350000   0.97941385   -4.8511689      1728000    222.89931         6750          698 
 1360000   0.99400486   -4.9261179      1728000      224.652         6800          702 
 1370000   0.95042713   -4.9276087      1728000    226.45087         6850          703 
 1380000   0.98988184   -4.8542104      1728000    228.21115         6900          704 
 1390000   0.99941212   -4.9406141      1728000    229.97879         6950          705 
 1400000    1.0227159   -4.7520644      1728000    231.75433         7000          708 
 1410000   0.99037195   -4.8838807      1728000    233.52418         7050          710 
 1420000    1.0004065    -4.877424      1728000    235.29241         7100          711 
 1430000   0.97168349   -4.9151987      1728000    237.06616         7150          711 
 1440000    1.0471116   -4.7966333      1728000    238.81023         7200          713 
 1450000    1.0124265   -4.8298763      1728000    240.56218         7250          716 
 1460000   0.96858742   -4.8579198      1728000    242.31544         7300          717 
 1470000    1.0507297   -4.8785536      1728000    244.06436         7350          717 
 1480000   0.95056655   -5.0563596      1728000    245.82821         7400          720 
 1490000    1.0214081   -4.9333673      1728000    247.60846         7450          722 
 1500000   0.96903272   -4.9029357      1728000    249.38555         7500          722 
 1510000   0.99772601   -4.9686453      1728000    251.13629         7550          723 
 1520000    1.0181377   -4.9917945      1728000    252.88394         7600          726 
 1530000    1.0034253   -5.0118699      1728000    254.64188         7650          726 
 1540000   0.98393609     -5.05462      1728000    256.40727         7700          726 
 1550000    1.0153558   -5.0410958      1728000    258.17531         7750          726 
 1560000   0.95908163   -4.8791263      1728000    259.92817         7800          729 
 1570000   0.96543016   -4.9450388      1728000    261.67659         7850          729 
 1580000   0.96502803   -4.9678231      1728000    263.43818         7900          732 
 1590000   0.93320387   -5.0173539      1728000    265.20915         7950          734 
 1600000    1.0037056   -4.8984548      1728000    266.96834         8000          736 
 1610000   0.97135843   -4.8821856      1728000    268.72049         8050          739 
 1620000   0.97618403   -4.9625816      1728000    270.47158         8100          739 
 1630000   0.98802335   -4.8589695      1728000    272.22048         8150          740 
 1640000    0.9441417   -4.9127265      1728000    273.97067         8200          742 
 1650000   0.95060011   -4.8102867      1728000    275.72015         8250          743 
 1660000     1.032123   -4.8534325      1728000    277.47239         8300          745 
 1670000   0.99420537   -4.9649166      1728000    279.22291         8350          748 
 1680000    1.0174823   -4.9985778      1728000    280.96859         8400          748 
 1690000    0.9800438    -4.824855      1728000    282.71906         8450          749 
 1700000   0.99852997   -4.8582892      1728000    284.48255         8500          750 
 1710000   0.94812604   -4.8575869      1728000    286.23802         8550          752 
 1720000    1.0359364   -4.8972333      1728000    288.02829         8600          753 
 1730000    1.0684509   -4.9622697      1728000    289.81734         8650          755 
 1740000   0.98993584   -5.1231208      1728000    291.61284         8700          755 
 1750000     1.019949   -4.9492446      1728000    293.40636         8750          755 
 1760000    0.9660118   -4.9268315      1728000    295.18217         8800          756 
 1770000   0.96399176   -4.9523007      1728000    296.95708         8850          756 
 1780000   0.99066425   -4.9536339      1728000    298.71505         8900          757 
 1790000   0.97681746   -5.0768964      1728000    300.48019         8950          758 
 1800000    1.0253791   -4.8656684      1728000    302.26188         9000          758 
 1810000   0.98012508   -4.9218595      1728000    304.01985         9050          759 
 1820000   0.97409009   -4.9613295      1728000    305.77586         9100          761 
 1830000   0.98720215   -4.9990655      1728000    307.52897         9150          761 
 1840000    1.0266966   -4.9873869      1728000    309.28212         9200          762 
 1850000    1.0068686    -4.786001      1728000    311.05489         9250          764 
 1860000   0.98980083    -4.984876      1728000    312.82099         9300          768 
 1870000    1.0385909   -4.9783559      1728000    314.60604         9350          768 
 1880000    1.0310715   -5.0247919      1728000    316.37416         9400          771 
 1890000   0.97885227   -4.9318861      1728000    318.14196         9450          775 
 1900000   0.96630247   -4.7837681      1728000    319.92832         9500          776 
 1910000    1.0337463   -4.8947967      1728000    321.69314         9550          780 
 1920000    1.0153467   -4.8949872      1728000    323.46084         9600          780 
 1930000   0.95387531   -4.9073383      1728000    325.22602         9650          782 
 1940000   0.96064603   -4.8768145      1728000    327.01205         9700          782 
 1950000    1.0196226   -4.9833219      1728000    328.79235         9750          784 
 1960000    1.0205852   -5.0452439      1728000    330.56803         9800          784 
 1970000    1.0091303   -4.9556619      1728000    332.33656         9850          784 
 1980000    1.0170998   -4.9558631      1728000    334.10507         9900          784 
 1990000    1.0093941   -4.9072556      1728000    335.86882         9950          784 
 2000000    1.0094362   -4.9986525      1728000    337.64413        10000          784 
 2010000   0.97558095   -4.9623233      1728000    339.42606        10050          785 
 2020000    1.0072031   -4.8783455      1728000    341.18401        10100          785 
 2030000    1.0101489   -4.9085057      1728000    342.94382        10150          785 
 2040000    1.0543976   -4.9722523      1728000     344.7307        10200          786 
 2050000   0.97538266   -4.9140009      1728000     346.5089        10250          786 
 2060000   0.97793299   -5.0440539      1728000     348.3145        10300          786 
 2070000   0.95969575   -5.0306444      1728000    350.10403        10350          787 
 2080000    1.0061839   -4.8952481      1728000    351.87494        10400          788 
 2090000    0.9541105   -4.8739603      1728000    353.65921        10450          789 
 2100000   0.93218606   -5.0138912      1728000    355.45606        10500          791 
 2110000    1.0119697   -4.9570353      1728000    357.20714        10550          794 
 2120000    1.0093479   -4.9662633      1728000     358.9638        10600          794 
 2130000    1.0364017   -4.9821838      1728000    360.73509        10650          795 
 2140000   0.95271454    -5.074124      1728000    362.50808        10700          795 
 2150000    1.0259922   -4.9935228      1728000    364.27634        10750          796 
 2160000     1.057526   -4.9316861      1728000    366.03518        10800          796 
 2170000    1.0061343   -5.0601359      1728000    367.80406        10850          797 
 2180000     1.035164   -4.9678318      1728000    369.57903        10900          797 
 2190000    0.9769989   -4.9877328      1728000    371.33057        10950          798 
 2200000      1.01641   -4.9055582      1728000      373.087        11000          799 
 2210000    1.0532248   -4.8659996      1728000    374.83522        11050          799 
 2220000   0.95515778   -4.8954512      1728000    376.59091        11100          799 
 2230000   0.99532591   -4.8854413      1728000    378.33317        11150          800 
 2240000   0.96118552    -4.995225      1728000     380.0723        11200          802 
 2250000   0.98901814    -4.975694      1728000    381.82195        11250          803 
 2260000    1.0075178   -4.9950564      1728000    383.60451        11300          804 
 2270000    1.0109071   -4.8708362      1728000     385.3692        11350          804 
 2280000   0.98097863    -5.017907      1728000    387.14485        11400          805 
 2290000   0.97795989    -5.000155      1728000    388.93945        11450          806 
 2300000    1.0070805   -4.9558098      1728000    390.72736        11500          806 
 2310000    1.0047675   -4.8673998      1728000    392.47539        11550          806 
 2320000    1.0242921   -4.9767621      1728000    394.24128        11600          806 
 2330000   0.97203026   -4.9458256      1728000    396.00214        11650          807 
 2340000   0.98703132     -4.87002      1728000    397.75211        11700          808 
 2350000   0.95947079    -4.870323      1728000    399.50534        11750          808 
 2360000    1.0269724   -4.8628297      1728000    401.26718        11800          809 
 2370000   0.97565758   -4.9875891      1728000    403.03038        11850          810 
 2380000    1.0006786   -4.8614702      1728000     404.7984        11900          810 
 2390000    1.0126471   -4.9564524      1728000    406.55179        11950          810 
 2400000   0.96704376    -4.889507      1728000    408.31589        12000          810 
 2410000    1.0361374   -4.9226554      1728000    410.06973        12050          811 
 2420000    1.0116998   -5.0260757      1728000    411.81912        12100          815 
 2430000    1.0114994   -4.9552892      1728000    413.57504        12150          817 
 2440000   0.98342162   -5.0608878      1728000    415.33893        12200          818 
 2450000    1.0235287    -4.816517      1728000    417.10745        12250          819 
 2460000   0.98213589   -5.0116439      1728000    418.87897        12300          819 
 2470000   0.94808616   -4.9752006      1728000    420.65492        12350          819 
 2480000     1.015569   -5.0736983      1728000    422.42331        12400          820 
 2490000    1.0497621   -4.9052015      1728000    424.19518        12450          821 
 2500000   0.94423541   -5.0029517      1728000     425.9649        12500          822 
 2510000    1.1002273   -4.8923251      1728000    427.72096        12550          822 
 2520000    1.0332591   -4.9683444      1728000    429.48028        12600          823 
 2530000    1.0783275   -4.8218446      1728000    431.23892        12650          825 
 2540000   0.97233639   -4.9757814      1728000    433.00616        12700          825 
 2550000   0.99708369   -5.0094454      1728000    434.77018        12750          826 
 2560000     1.039379   -5.0409994      1728000    436.53235        12800          828 
 2570000   0.97852583   -4.9627239      1728000    438.30773        12850          829 
 2580000    1.0589984   -4.8534106      1728000     440.0596        12900          830 
 2590000    1.0612412   -4.7861752      1728000    441.81177        12950          833 
 2600000    1.0303361   -5.0923198      1728000    443.58235        13000          833 
 2610000   0.97815213   -4.9704473      1728000    445.38572        13050          834 
 2620000   0.99664572   -4.8083097      1728000    447.18425        13100          836 
 2630000    1.0298432   -4.9324075      1728000    448.97629        13150          837 
 2640000   0.99904747   -4.9913007      1728000    450.78776        13200          837 
 2650000   0.96971248   -4.9202694      1728000    452.63487        13250          837 
 2660000    1.0632751    -4.979453      1728000    454.40219        13300          838 
 2670000   0.98042608    -4.908334      1728000     456.1887        13350          839 
 2680000    1.0420154   -4.9407318      1728000    457.95924        13400          841 
 2690000   0.97355225   -5.0176446      1728000    459.73719        13450          841 
 2700000    1.0305948    -4.982453      1728000    461.50177        13500          842 
 2710000    1.1004376   -5.0072952      1728000    463.25478        13550          843 
 2720000    1.0051888   -4.9779926      1728000    465.00822        13600          844 
 2730000    1.0700778   -4.9868281      1728000    466.76499        13650          845 
 2740000   0.98064441   -4.9218939      1728000    468.51621        13700          846 
 2750000    1.0218092   -5.0087818      1728000    470.27992        13750          846 
 2760000   0.96652437   -4.9053675      1728000    472.05519        13800          846 
 2770000    1.0068592   -4.9070945      1728000    473.83292        13850          847 
 2780000   0.96649914    -4.852248      1728000    475.64204        13900          848 
 2790000    1.0195084   -4.9564673      1728000    477.41374        13950          849 
 2800000      1.00979   -4.8660008      1728000    479.20381        14000          851 
 2810000    1.0135404   -4.9401968      1728000    480.98776        14050          851 
 2820000   0.96953152   -5.0315966      1728000    482.75796        14100          851 
 2830000     1.084986    -4.989006      1728000      484.565        14150          851 
 2840000   0.98694231   -5.1422446      1728000    486.35949        14200          851 
 2850000    1.0164775   -5.0381767      1728000    488.16997        14250          852 
 2860000   0.98900205   -4.8348638      1728000    489.97168        14300          852 
 2870000   0.95168355   -4.9072476      1728000    491.75002        14350          852 
 2880000   0.91748518   -5.1362878      1728000     493.5197        14400          854 
 2890000    1.0230791   -5.0531874      1728000    495.29545        14450          854 
 2900000    1.0286838   -5.1168722      1728000    497.06199        14500          855 
 2910000    1.0150821   -4.9976508      1728000    498.86177        14550          857 
 2920000    0.9558229   -4.9708955      1728000    500.65991        14600          859 
 2930000    1.0082184   -5.0130376      1728000    502.44065        14650          859 
 2940000    1.0019274   -4.9746276      1728000    504.22918        14700          860 
 2950000   0.97280372   -5.0811525      1728000    506.02808        14750          861 
 2960000    1.0545689   -5.0811714      1728000    507.80474        14800          861 
 2970000    1.0164276   -4.9206714      1728000    509.61306        14850          863 
 2980000   0.95819973   -5.0648722      1728000    511.43183        14900          863 
 2990000    1.0351409   -4.9090675      1728000     513.2229        14950          863 
 3000000    1.0301594   -4.9687834      1728000    515.02265        15000          863 
 3010000    1.0447749     -5.08333      1728000     516.7953        15050          866 
 3020000    1.0041151   -5.0628243      1728000     518.5688        15100          867 
 3030000   0.99902911   -5.0677992      1728000     520.3528        15150          868 
 3040000   0.92950449   -5.0753128      1728000    522.14148        15200          869 
 3050000    1.0218236   -5.1141349      1728000     523.9297        15250          869 
 3060000    1.0189031   -4.9999475      1728000    525.69754        15300          869 
 3070000   0.96673942   -4.9825428      1728000    527.46184        15350          869 
 3080000   0.96056484    -4.957774      1728000    529.21558        15400          870 
 3090000    1.0030973   -5.0078068      1728000    530.98467        15450          871 
 3100000    1.0275997   -5.0108084      1728000    532.77268        15500          872 
 3110000   0.96020375   -5.0224646      1728000      534.546        15550          876 
 3120000   0.96448061   -4.9838204      1728000    536.34866        15600          876 
 3130000   0.93784621   -4.9776211      1728000    538.12676        15650          877 
 3140000   0.94178211   -5.0422395      1728000    539.89267        15700          879 
 3150000    1.0491053   -5.0668274      1728000    541.66266        15750          879 
 3160000   0.96993078   -4.9145077      1728000    543.46122        15800          880 
 3170000    1.0312524   -4.9990839      1728000    545.23898        15850          881 
 3180000   0.99359713   -5.0155238      1728000    547.02172        15900          881 
 3190000    0.9997509   -4.9612598      1728000    548.79477        15950          882 
 3200000   0.98272531   -5.0820216      1728000     550.5688        16000          884 
 3210000    1.0630426   -4.9955791      1728000    552.34424        16050          884 
 3220000    1.0050991   -5.0349203      1728000     554.1248        16100          884 
 3230000    1.0766805   -5.1161151      1728000    555.90955        16150          884 
 3240000   0.94977055     -4.97132      1728000    557.69841        16200          885 
 3250000   0.96194705   -4.9511435      1728000    559.50547        16250          885 
 3260000   0.96137621    -5.038503      1728000     561.3158        16300          885 
 3270000   0.97528883   -5.0277517      1728000     563.1057        16350          885 
 3280000    1.0085006   -4.9485643      1728000    564.90918        16400          885 
 3290000   0.98399117   -4.9618436      1728000    566.68765        16450          886 
 3300000    1.0036232   -5.1160205      1728000    568.47775        16500          887 
 3310000   0.99108908   -5.0584757      1728000    570.24207        16550          887 
 3320000    1.0315261   -5.0586088      1728000    572.03709        16600          888 
 3330000   0.97042761   -5.1325063      1728000    573.81429        16650          888 
 3340000    1.0166371   -5.0519322      1728000    575.59396        16700          888 
 3350000   0.99425535   -5.1333268      1728000    577.35892        16750          888 
 3360000    1.0306113   -4.9914283      1728000    579.13962        16800          890 
 3370000    1.0078812   -5.0675346      1728000    580.92668        16850          890 
 3380000    1.0020348    -5.006289      1728000    582.70987        16900          890 
 3390000    1.0461794   -5.1563378      1728000    584.49888        16950          891 
 3400000   0.99507794   -5.1066869      1728000    586.27976        17000          896 
 3410000   0.96441085    -4.963954      1728000     588.0582        17050          897 
 3420000   0.98286365   -5.0780646      1728000    589.82917        17100          898 
 3430000    1.0575399   -5.0006027      1728000    591.61741        17150          898 
 3440000   0.94577747   -4.8952097      1728000    593.41761        17200          898 
 3450000    1.0506269   -4.9589668      1728000    595.18589        17250          899 
 3460000    1.0328982   -5.0882831      1728000    596.97867        17300          899 
 3470000    1.0482543   -5.0845591      1728000    598.75666        17350          900 
 3480000   0.95798918   -4.9928614      1728000    600.55065        17400          901 
 3490000    1.0627384   -5.1239086      1728000    602.32782        17450          902 
 3500000    1.0054442   -5.0042596      1728000    604.12065        17500          902 
 3510000    1.0671416   -4.9735219      1728000    605.90555        17550          904 
 3520000    1.0285262   -5.0353942      1728000    607.69658        17600          904 
 3530000    1.0032249   -5.0397469      1728000    609.47879        17650          905 
 3540000    1.0396498   -4.8990965      1728000     611.2646        17700          905 
 3550000    1.0118997   -5.0166035      1728000    613.06065        17750          906 
 3560000    1.0449881   -4.9903711      1728000    614.85755        17800          907 
 3570000    0.9634398   -5.0354233      1728000    616.67048        17850          907 
 3580000   0.95603429    -4.959598      1728000    618.45848        17900          910 
 3590000    1.0185404   -4.9009653      1728000    620.23639        17950          913 
 3600000    1.0265374   -5.0791025      1728000    622.05649        18000          914 
 3610000   0.98053078   -5.0089957      1728000    623.85775        18050          915 
 3620000   0.94273694   -4.9799793      1728000    625.65565        18100          917 
 3630000    0.9331868   -5.0568027      1728000    627.44402        18150          919 
 3640000    1.0120516    -5.140281      1728000    629.24202        18200          920 
 3650000   0.96408654   -4.8611334      1728000    631.04296        18250          921 
 3660000    1.0500168   -5.0082857      1728000    632.83364        18300          921 
 3670000    1.0125305   -5.0224455      1728000    634.61318        18350          921 
 3680000    0.9394692   -4.9869312      1728000    636.38361        18400          922 
 3690000   0.97006523   -5.0683771      1728000    638.15749        18450          922 
 3700000   0.98111912   -4.9585786      1728000    639.93557        18500          922 
 3710000   0.94851038   -4.9556637      1728000    641.69865        18550          923 
 3720000   0.98779242   -5.0152811      1728000    643.47579        18600          925 
 3730000    1.0393943   -5.1332937      1728000    645.24368        18650          927 
 3740000   0.94472367    -5.082413      1728000    647.02478        18700          929 
 3750000   0.99116992    -4.990766      1728000    648.80345        18750          930 
 3760000    0.9648447   -4.8923154      1728000    650.59051        18800          933 
 3770000   0.99003931   -4.9214165      1728000    652.39064        18850          934 
 3780000    1.0111592   -5.0632681      1728000    654.20057        18900          935 
 3790000   0.98823146   -5.1344936      1728000     656.0334        18950          935 
 3800000    1.0147543   -5.0453525      1728000    657.84128        19000          937 
 3810000    1.0157771   -5.1100803      1728000    659.65253        19050          937 
 3820000   0.95625345   -5.0934216      1728000    661.45454        19100          937 
 3830000    1.0253943   -5.1507439      1728000    663.27959        19150          938 
 3840000    1.0472305     -5.05101      1728000    665.07059        19200          939 
 3850000   0.93399352   -5.1022754      1728000    666.90572        19250          941 
 3860000    1.0061464   -5.0932378      1728000    668.69763        19300          941 
 3870000   0.95767743   -5.0244749      1728000    670.48555        19350          941 
 3880000   0.99149755   -5.1679576      1728000    672.26825        19400          942 
 3890000   0.95950425   -5.0471195      1728000    674.08138        19450          944 
 3900000   0.98765627   -5.0758202      1728000    675.88959        19500          945 
 3910000   0.99363401   -5.1505996      1728000    677.69162        19550          947 
 3920000    1.0236632   -5.1186293      1728000    679.50645        19600          949 
 3930000     0.994943   -5.1236487      1728000    681.32956        19650          949 
 3940000   0.95339531   -5.1247531      1728000    683.15515        19700          949 
 3950000   0.99600495   -5.1527309      1728000     684.9824        19750          949 
 3960000   0.95645581   -5.0838928      1728000    686.81654        19800          949 
 3970000   0.95954448   -5.2151403      1728000    688.64045        19850          950 
 3980000   0.99556964   -5.0354159      1728000    690.88647        19900          950 
 3990000    1.0406114   -5.0833273      1728000    693.00542        19950          952 
 4000000    0.9861514    -5.074258      1728000    694.95482        20000          953 
 4010000   0.93839902   -5.1706699      1728000    696.81987        20050          953 
 4020000   0.99818294    -5.104582      1728000    698.67297        20100          953 
 4030000    1.0161954    -5.250855      1728000    700.52263        20150          954 
 4040000    1.0560878   -5.0553613      1728000     702.3605        20200          954 
 4050000    1.0411395   -5.0999394      1728000    704.16543        20250          955 
 4060000    0.9541994   -5.1764823      1728000    705.97135        20300          955 
 4070000    1.0319497   -5.1171482      1728000    707.77547        20350          955 
 4080000     1.061261   -5.0380124      1728000     709.5635        20400          956 
 4090000   0.97781755   -5.0234453      1728000    711.37653        20450          957 
 4100000    0.9997263    -5.127112      1728000    713.20847        20500          959 
 4110000    1.0313152   -5.0864719      1728000     715.0366        20550          959 
 4120000    1.0343744   -5.1470379      1728000    716.88141        20600          959 
 4130000    1.0029954   -5.1487227      1728000    718.71851        20650          960 
 4140000   0.93339411   -5.1393598      1728000     720.5573        20700          961 
 4150000   0.96636172   -5.0362918      1728000    722.38644        20750          961 
 4160000     1.068032   -5.1065381      1728000    724.19635        20800          962 
 4170000     1.016839   -5.0140513      1728000    726.00618        20850          962 
 4180000   0.93988643   -5.1711939      1728000    727.83129        20900          962 
 4190000   0.97768859   -5.1332846      1728000    729.63955        20950          962 
 4200000    1.1211651   -5.1424409      1728000    731.46027        21000          962 
 4210000    1.0061783   -4.9799834      1728000    733.27825        21050          964 
 4220000   0.98680591   -5.0232996      1728000     735.0915        21100          964 
 4230000   0.95533136   -5.0863224      1728000    736.88237        21150          964 
 4240000     1.024183   -5.2218776      1728000    738.69549        21200          964 
 4250000   0.98641769    -4.926479      1728000    740.52244        21250          965 
 4260000   0.97021443   -5.0867908      1728000    742.33606        21300          965 
 4270000    1.0121652    -5.187057      1728000    744.20121        21350          965 
 4280000    1.0218516   -5.1000306      1728000    746.01449        21400          966 
 4290000    1.0141181   -5.1463081      1728000    747.81113        21450          966 
 4300000    1.0107693   -5.1729257      1728000    749.62747        21500          966 
 4310000   0.98265969   -5.0546579      1728000     751.4416        21550          966 
 4320000   0.96899272    -5.083949      1728000    753.27554        21600          966 
 4330000   0.97006083   -5.0966848      1728000    755.09947        21650          966 
 4340000   0.96530481   -5.2367409      1728000    756.94639        21700          966 
 4350000   0.97101394    -5.139954      1728000    758.77237        21750          966 
 4360000    0.9510027   -5.1891939      1728000    760.57817        21800          966 
 4370000   0.96931604    -5.140281      1728000    762.37062        21850          966 
 4380000    1.0143183   -5.1312785      1728000    764.19339        21900          967 
 4390000    0.9691208   -5.1214312      1728000    766.07233        21950          967 
 4400000   0.97179661    -5.135596      1728000    767.93032        22000          968 
 4410000   0.96443844   -5.1538624      1728000    769.76311        22050          968 
 4420000    1.0063077   -5.1275499      1728000    771.59142        22100          968 
 4430000    0.9838853   -5.2790772      1728000    773.43039        22150          968 
 4440000   0.90156571   -5.1049443      1728000    775.26433        22200          968 
 4450000    1.0166225   -5.2001816      1728000    777.07543        22250          969 
 4460000    1.0052703   -5.0947351      1728000    778.88904        22300          969 
 4470000   0.91079168   -5.1241165      1728000    780.68546        22350          970 
 4480000    0.9993973   -5.0190174      1728000    782.50282        22400          972 
 4490000    1.0516818   -5.1016239      1728000    784.30844        22450          972 
 4500000    1.0055423   -5.1566709      1728000    786.13233        22500          972 
 4510000   0.96804944   -5.0350093      1728000    787.93533        22550          972 
 4520000   0.98678014   -5.0913249      1728000    789.74923        22600          972 
 4530000    1.0086624   -5.1888639      1728000    791.56736        22650          972 
 4540000    1.0236445   -5.1942216      1728000    793.38632        22700          972 
 4550000    1.0213111   -5.1202739      1728000    795.21447        22750          974 
 4560000    1.0005751   -5.1078038      1728000    797.05552        22800          975 
 4570000    1.0146563   -5.0914694      1728000    798.88838        22850          975 
 4580000    1.0067296   -5.2239142      1728000    800.68933        22900          975 
 4590000   0.98862592   -5.1961724      1728000    802.49245        22950          976 
 4600000    1.0163699   -5.2520749      1728000     804.3263        23000          977 
 4610000    1.0123092   -5.1878882      1728000    807.29015        23050          978 
 4620000    1.0163596   -5.2157741      1728000    809.49842        23100          978 
 4630000   0.98239948   -5.0593527      1728000     811.4214        23150          978 
 4640000    1.0497632   -5.2184434      1728000    813.24932        23200          981 
 4650000    1.0620755   -5.0995701      1728000    815.13009        23250          982 
 4660000   0.97690369    -5.247257      1728000    817.25974        23300          982 
 4670000    1.0136329    -5.120344      1728000    819.46848        23350          982 
 4680000    1.0361426   -5.1981057      1728000    821.49626        23400          982 
 4690000   0.96240656   -5.1457207      1728000    823.67003        23450          982 
 4700000   0.96159358   -5.1496215      1728000    825.91673        23500          983 
 4710000   0.98988183   -5.0625581      1728000    828.13546        23550          983 
 4720000   0.96448884   -5.1437593      1728000    830.18436        23600          983 
 4730000     1.059538   -5.1941791      1728000    832.18231        23650          984 
 4740000    1.0165142   -5.2021685      1728000    834.06638        23700          984 
 4750000    1.0143329   -5.1454505      1728000     835.9423        23750          987 
 4760000    1.0097468   -5.0763917      1728000    837.86533        23800          988 
 4770000   0.96922889   -5.2047291      1728000    839.76035        23850          988 
 4780000    0.9836028   -5.1341013      1728000    841.64993        23900          989 
 4790000    1.0407655   -5.2069563      1728000    843.49314        23950          989 
 4800000   0.96566955   -4.9342679      1728000    845.38408        24000          989 
 4810000   0.96104185   -5.1070988      1728000    847.20977        24050          989 
 4820000    1.0211733   -5.0903805      1728000    849.11048        24100          990 
 4830000    1.0207541   -5.2092184      1728000    850.94601        24150          992 
 4840000   0.97086959   -5.1477948      1728000    852.78456        24200          993 
 4850000    1.0310355   -5.1609714      1728000     854.6343        24250          995 
 4860000    1.0097887   -5.1785182      1728000    856.55898        24300          996 
 4870000    1.0373367   -5.1874752      1728000    858.50712        24350          996 
 4880000    1.0134481   -5.0124154      1728000    860.38031        24400          997 
 4890000   0.99927523   -5.2099535      1728000    862.26973        24450          997 
 4900000   0.98290142   -5.1051411      1728000    864.12209        24500          998 
 4910000   0.95443565   -5.1369482      1728000    866.02587        24550          998 
 4920000    1.1020572   -5.1024157      1728000    868.08156        24600          999 
 4930000   0.99357429   -5.0840562      1728000    870.01144        24650         1000 
 4940000   0.99551144   -4.9717266      1728000    871.87826        24700         1001 
 4950000    1.0159213   -5.0593353      1728000    873.73147        24750         1002 
 4960000    1.0224063   -5.0374941      1728000     875.5902        24800         1002 
 4970000    1.0104969   -5.1825867      1728000    877.48415        24850         1003 
 4980000    1.0075976   -5.0387398      1728000    879.39149        24900         1005 
 4990000    1.0208688   -5.1079714      1728000    881.44339        24950         1008 
 5000000    1.0254598   -5.1685429      1728000    883.38919        25000         1008 
 5010000    1.0133842   -5.2470711      1728000    885.40713        25050         1009 
 5020000    1.0551561   -5.0343345      1728000    887.29099        25100         1009 
 5030000     1.067894   -5.0321501      1728000    889.20209        25150         1009 
 5040000    1.0036259   -5.1504115      1728000    891.15437        25200         1010 
 5050000   0.98029686    -5.176795      1728000    893.07745        25250         1010 
 5060000    1.0393784   -5.1872163      1728000    895.00537        25300         1010 
 5070000    1.0654773   -5.1066181      1728000    896.88944        25350         1010 
 5080000   0.97848859   -5.1717354      1728000    898.73216        25400         1010 
 5090000    1.0165424   -5.1652277      1728000    900.58145        25450         1011 
 5100000    1.0243886   -5.0397798      1728000    902.39885        25500         1013 
 5110000   0.98301284   -5.1924478      1728000    904.20884        25550         1014 
 5120000   0.98818095   -5.1938274      1728000    906.07713        25600         1014 
 5130000    1.0044012   -4.9954598      1728000    907.96178        25650         1014 
 5140000   0.99610031   -5.1743901      1728000    909.78742        25700         1014 
 5150000    1.0399519   -5.1244552      1728000    911.66366        25750         1014 
 5160000    1.0565753   -5.1283177      1728000    913.49592        25800         1014 
 5170000   0.97220266   -5.0240642      1728000    915.34926        25850         1014 
 5180000     1.002199    -5.148426      1728000    917.18836        25900         1014 
 5190000    1.0210556   -5.2063577      1728000    919.02699        25950         1015 
 5200000   0.97983838   -5.0381266      1728000    920.85639        26000         1015 
 5210000   0.98169022   -5.0983789      1728000    922.69085        26050         1015 
 5220000   0.97396983    -5.212184      1728000    924.55747        26100         1015 
 5230000    1.0222503   -5.2145777      1728000    926.39615        26150         1015 
 5240000   0.96297078   -5.1196491      1728000    928.26023        26200         1015 
 5250000    1.0164941   -5.2017604      1728000    930.13795        26250         1015 
 5260000    0.9973978   -5.0995785      1728000    931.98325        26300         1015 
 5270000    1.0077928   -5.1493956      1728000     933.8139        26350         1015 
 5280000   0.96053206   -5.1663801      1728000    935.68616        26400         1016 
 5290000    1.0358298   -5.0389501      1728000    937.55013        26450         1016 
 5300000    1.0342498   -5.1119505      1728000    939.51811        26500         1016 
 5310000    1.0260131   -5.2133313      1728000    941.38818        26550         1017 
 5320000    1.0118072   -5.0754163      1728000    943.28902        26600         1018 
 5330000   0.99325564   -5.1293529      1728000    945.15494        26650         1018 
 5340000   0.92054966   -5.0767263      1728000    947.01916        26700         1019 
 5350000    1.0013068   -5.0179304      1728000    948.90499        26750         1020 
 5360000    1.0009272   -5.1197602      1728000    950.80365        26800         1021 
 5370000   0.99477486   -5.3254781      1728000    952.67413        26850         1021 
 5380000   0.97886431   -4.9995652      1728000    954.53867        26900         1021 
 5390000   0.98872471   -5.2271592      1728000     956.4036        26950         1021 
 5400000    1.0092247   -5.0088373      1728000    958.26758        27000         1021 
 5410000   0.91535652   -5.1444613      1728000    960.14814        27050         1023 
 5420000    0.9712998   -5.1999873      1728000    962.01639        27100         1024 
 5430000   0.99408401   -5.1558001      1728000    963.89305        27150         1025 
 5440000    1.0374869   -5.0600891      1728000      965.751        27200         1025 
 5450000    1.0443009    -5.096311      1728000    967.62998        27250         1025 
 5460000    1.0240511   -5.0001031      1728000    969.49241        27300         1027 
 5470000   0.99940556   -5.1128591      1728000    971.39251        27350         1027 
 5480000   0.98184784   -5.0984872      1728000    973.26478        27400         1027 
 5490000    1.0079732   -5.1303537      1728000    975.14517        27450         1027 
 5500000    1.0138452   -5.1973108      1728000    976.97807        27500         1027 
 5510000    1.0486502   -5.0325899      1728000    978.92612        27550         1028 
 5520000   0.97057249   -5.1986428      1728000     980.8149        27600         1028 
 5530000   0.96690927   -5.2336003      1728000     982.6889        27650         1029 
 5540000    1.0150631   -5.1908739      1728000    984.56609        27700         1029 
 5550000     1.008409   -5.1603531      1728000    986.44117        27750         1030 
 5560000    1.0170456    -5.112551      1728000    988.36098        27800         1030 
 5570000    0.9910912   -5.0943019      1728000    990.28704        27850         1032 
 5580000    1.0182851    -5.201962      1728000      992.234        27900         1032 
 5590000    1.0878954   -5.1830429      1728000     994.1664        27950         1033 
 5600000   0.98733972   -5.1579225      1728000    996.10694        28000         1033 
 5610000   0.98468581   -5.0359519      1728000    998.03439        28050         1033 
 5620000    1.0291564   -5.0009221      1728000    999.88101        28100         1034 
 5630000    1.0448947   -5.1227172      1728000    1001.7725        28150         1035 
 5640000   0.95657129   -4.9870117      1728000    1003.6232        28200         1035 
 5650000   0.97895947   -5.0561525      1728000    1005.5962        28250         1035 
 5660000   0.99919014   -5.1342286      1728000    1007.5036        28300         1035 
 5670000    1.0321325   -5.0903635      1728000    1009.3894        28350         1035 
 5680000    1.0107497   -5.2207918      1728000    1011.2848        28400         1035 
 5690000    1.0398444   -5.0875141      1728000    1013.1422        28450         1035 
 5700000    1.0056756   -5.0167822      1728000    1014.9884        28500         1035 
 5710000   0.97903219   -5.1273264      1728000    1016.8387        28550         1036 
 5720000   0.92155987   -5.1047956      1728000    1018.7291        28600         1038 
 5730000    1.0228879   -5.0926271      1728000    1020.5769        28650         1040 
 5740000    1.0073839   -5.2158383      1728000    1022.4301        28700         1041 
 5750000    1.0015468   -5.1454279      1728000    1024.2677        28750         1041 
 5760000     1.022015   -5.0706301      1728000    1026.0949        28800         1042 
 5770000    0.9008476   -5.1962805      1728000     1027.943        28850         1042 
 5780000    1.0225243   -5.1842031      1728000    1029.7977        28900         1042 
 5790000    1.0547673   -5.1495005      1728000     1031.621        28950         1045 
 5800000    1.0042186   -5.2173103      1728000    1033.4879        29000         1046 
 5810000    1.0559277   -5.2136065      1728000     1035.309        29050         1047 
 5820000   0.97014096   -5.1206911      1728000     1037.137        29100         1047 
 5830000    1.0769191   -5.2079349      1728000    1038.9602        29150         1047 
 5840000   0.99317082   -5.1961421      1728000    1040.7938        29200         1050 
 5850000    1.0280678   -5.0271341      1728000    1042.6229        29250         1050 
 5860000   0.99737878   -5.1392363      1728000    1044.4411        29300         1052 
 5870000   0.97089889   -5.0956286      1728000    1046.2729        29350         1053 
 5880000    1.0507612   -5.2350569      1728000     1048.117        29400         1053 
 5890000    1.0102542   -5.0915349      1728000    1049.9461        29450         1054 
 5900000    1.0626169   -5.2038461      1728000    1051.7789        29500         1054 
 5910000    1.0653242   -5.1329859      1728000     1053.592        29550         1054 
 5920000    1.0571377   -5.1832861      1728000     1055.432        29600         1054 
 5930000    1.0257955   -5.1202585      1728000    1057.2699        29650         1054 
 5940000   0.96184673   -5.0893242      1728000    1059.1049        29700         1054 
 5950000   0.98724934   -5.1398942      1728000    1060.9538        29750         1054 
 5960000   0.98841075   -5.1751935      1728000     1062.796        29800         1054 
 5970000    1.0688622   -5.1219078      1728000    1064.6428        29850         1055 
 5980000   0.99401682   -5.1037427      1728000    1066.5469        29900         1055 
 5990000   0.92576775   -5.2075146      1728000     1068.404        29950         1055 
 6000000    1.0854432   -5.1369794      1728000     1070.236        30000         1055 
 6010000   0.99478505   -5.2386733      1728000    1072.0868        30050         1055 
 6020000   0.93594084   -5.0902342      1728000    1073.9149        30100         1055 
 6030000   0.98026694   -5.2541391      1728000    1075.7458        30150         1056 
 6040000    1.1363254   -5.1208286      1728000    1077.5799        30200         1056 
 6050000   0.99983241   -5.1233907      1728000     1079.433        30250         1057 
 6060000    1.0296147   -5.1890657      1728000    1081.2809        30300         1057 
 6070000    1.0558946   -5.1302453      1728000    1083.1407        30350         1057 
 6080000   0.99488643   -5.0793911      1728000     1084.994        30400         1057 
 6090000    1.0705676   -5.1580028      1728000    1086.8449        30450         1057 
 6100000   0.98262845   -5.1284764      1728000    1088.7011        30500         1059 
 6110000    0.9894275   -5.0618378      1728000    1090.5289        30550         1060 
 6120000    1.0305929   -5.1403964      1728000    1092.3982        30600         1061 
 6130000    1.0166721   -5.1388287      1728000    1094.2487        30650         1062 
 6140000    0.9477857   -5.0147866      1728000    1096.0739        30700         1062 
 6150000   0.97292323   -5.1471957      1728000    1097.8997        30750         1064 
 6160000   0.96769828   -5.0951778      1728000    1099.7529        30800         1064 
 6170000   0.97339394   -5.2232578      1728000    1101.5962        30850         1064 
 6180000   0.96393126   -5.2148902      1728000    1103.4488        30900         1065 
 6190000    1.0297919   -5.3034128      1728000    1105.2999        30950         1066 
 6200000   0.97412159   -5.2279643      1728000    1107.1558        31000         1066 
 6210000    1.0594296    -5.163088      1728000    1109.0092        31050         1068 
 6220000    0.8787298   -5.0738034      1728000    1110.8728        31100         1068 
 6230000    1.0314165   -5.1298985      1728000     1112.723        31150         1068 
 6240000   0.98616074   -5.0195428      1728000    1114.5399        31200         1070 
 6250000    1.0168155   -5.1501384      1728000     1116.369        31250         1070 
 6260000   0.94429905   -5.3098942      1728000    1118.2097        31300         1071 
 6270000   0.93908095   -5.1726347      1728000    1120.0769        31350         1072 
 6280000    1.0174364   -5.1113789      1728000      1121.95        31400         1074 
 6290000     1.039822   -5.2322983      1728000    1123.7857        31450         1076 
 6300000    1.0060798   -5.1212724      1728000    1125.6378        31500         1078 
 6310000    0.9654509   -5.1494941      1728000    1127.4957        31550         1078 
 6320000     1.001631   -5.3020855      1728000    1129.3578        31600         1079 
 6330000    1.0014986   -5.1821007      1728000    1131.2048        31650         1079 
 6340000   0.94763704   -5.2120905      1728000    1133.0419        31700         1079 
 6350000   0.98757941   -5.2305592      1728000     1134.896        31750         1081 
 6360000    1.0183409   -5.0902083      1728000    1136.7538        31800         1082 
 6370000    1.0369692    -5.318348      1728000    1138.6376        31850         1083 
 6380000   0.96216281    -5.246188      1728000    1140.5059        31900         1083 
 6390000    1.0098494   -5.1039154      1728000    1142.3597        31950         1084 
 6400000   0.95180896   -5.3253979      1728000    1144.2154        32000         1085 
 6410000    0.9652307   -5.1676045      1728000    1146.0767        32050         1086 
 6420000   0.97424376   -5.2306693      1728000    1147.9358        32100         1086 
 6430000   0.99732271   -5.1474773      1728000    1149.7567        32150         1086 
 6440000    1.0448327   -5.0923999      1728000    1151.5788        32200         1086 
 6450000    1.0250696   -5.1585559      1728000    1153.4107        32250         1086 
 6460000    1.0365988   -5.2014335      1728000    1155.2388        32300         1086 
 6470000    1.0729753   -5.1498589      1728000    1157.0688        32350         1087 
 6480000    1.0166775   -5.0880686      1728000    1158.9018        32400         1089 
 6490000    1.0872102   -5.1615217      1728000    1160.7378        32450         1089 
 6500000    1.0254523   -5.1001137      1728000      1162.57        32500         1091 
 6510000    1.0056363   -5.1276553      1728000    1164.3966        32550         1093 
 6520000   0.95388747   -5.2158097      1728000     1166.246        32600         1094 
 6530000    1.0032739   -5.1788676      1728000    1168.0778        32650         1095 
 6540000   0.99869058   -5.2908758      1728000    1169.9358        32700         1095 
 6550000   0.98463078   -5.1531885      1728000    1171.8046        32750         1095 
 6560000   0.97539044   -5.0233071      1728000    1173.6448        32800         1095 
 6570000   0.93155112   -5.2454064      1728000    1175.4718        32850         1096 
 6580000    1.0464994   -5.1208717      1728000    1177.3128        32900         1097 
 6590000   0.97381817   -5.1363079      1728000    1179.1407        32950         1099 
 6600000   0.94774619     -5.23616      1728000    1180.9659        33000         1100 
 6610000    1.0123579   -5.1072683      1728000    1182.8076        33050         1100 
 6620000     1.037254   -5.1694381      1728000    1184.6347        33100         1100 
 6630000    1.0031373   -5.1429065      1728000    1186.4668        33150         1100 
 6640000   0.92720172   -5.1378693      1728000    1188.2989        33200         1100 
 6650000    0.9853732   -5.2541624      1728000    1190.1502        33250         1100 
 6660000    1.0856037   -5.1739932      1728000    1192.0016        33300         1101 
 6670000    1.0215792    -5.347692      1728000    1193.8446        33350         1102 
 6680000    1.0111007   -5.1458757      1728000    1195.6997        33400         1102 
 6690000    1.0169706    -5.221015      1728000    1197.5427        33450         1104 
 6700000   0.96302898   -5.1925901      1728000    1199.3856        33500         1105 
 6710000    1.0132563   -5.2839408      1728000    1201.2103        33550         1105 
 6720000    1.0600128   -5.2239456      1728000    1203.0448        33600         1105 
 6730000    1.0086592   -5.2736177      1728000    1204.9402        33650         1105 
 6740000    1.0215627    -5.363095      1728000     1206.779        33700         1105 
 6750000    1.0141737   -5.2761663      1728000    1208.6237        33750         1105 
 6760000    1.0339962    -5.133004      1728000    1210.4696        33800         1106 
 6770000    1.0127041   -5.3010763      1728000     1212.324        33850         1106 
 6780000    1.0102545   -5.2181401      1728000    1214.1649        33900         1107 
 6790000   0.96771303   -5.1407953      1728000    1215.9917        33950         1107 
 6800000   0.98906437    -5.223056      1728000    1217.8394        34000         1107 
 6810000   0.96942164    -5.036452      1728000    1219.6837        34050         1107 
 6820000   0.96828735   -5.1334358      1728000    1221.5297        34100         1107 
 6830000    1.0019434   -5.2189859      1728000    1223.3698        34150         1108 
 6840000   0.96376536   -5.1312076      1728000    1225.2155        34200         1108 
 6850000    1.0249804   -5.2040855      1728000    1227.0736        34250         1109 
 6860000   0.97796779   -5.2590959      1728000    1228.9127        34300         1109 
 6870000   0.95802107   -5.1884679      1728000    1230.7487        34350         1109 
 6880000    1.0721956   -5.1458715      1728000    1232.5928        34400         1109 
 6890000    1.0766473   -5.2360786      1728000    1234.4247        34450         1110 
 6900000   0.98377972   -5.2602081      1728000    1236.2625        34500         1111 
 6910000   0.91258495   -5.2879562      1728000    1238.1106        34550         1111 
 6920000   0.99254148   -5.1450577      1728000    1239.9555        34600         1111 
 6930000    1.0121999   -5.1914482      1728000    1241.8025        34650         1111 
 6940000    1.0155851   -5.2001789      1728000     1243.631        34700         1111 
 6950000    1.0187097   -5.1935837      1728000     1245.461        34750         1111 
 6960000   0.94078567   -5.2979523      1728000    1247.3036        34800         1113 
 6970000    1.0374477   -5.1074314      1728000    1249.1476        34850         1114 
 6980000    1.0063317   -5.1665838      1728000    1250.9806        34900         1114 
 6990000    1.0325495   -5.1581077      1728000    1252.8136        34950         1114 
 7000000    1.0007992   -5.1001131      1728000    1254.6552        35000         1116 
 7010000    1.0386828   -5.2406757      1728000    1256.4807        35050         1116 
 7020000    1.0096241   -5.2467507      1728000    1258.3016        35100         1118 
 7030000   0.92590778   -5.3241108      1728000    1260.1297        35150         1119 
 7040000     1.031645   -5.1338614      1728000    1261.9618        35200         1119 
 7050000    1.0688418   -5.1964775      1728000    1263.7857        35250         1120 
 7060000    1.0980291    -5.224807      1728000    1265.6117        35300         1120 
 7070000    1.0268625    -5.313052      1728000    1267.4357        35350         1121 
 7080000    1.0017493   -5.4007511      1728000    1269.2817        35400         1121 
 7090000    1.0145265   -5.2951438      1728000    1271.1134        35450         1123 
 7100000   0.91747958   -5.2440078      1728000    1272.9545        35500         1123 
 7110000    1.0175875    -5.277182      1728000    1274.7935        35550         1123 
 7120000    1.0327014   -5.3238908      1728000    1276.6356        35600         1123 
 7130000   0.99609835   -5.2901104      1728000    1278.4836        35650         1123 
 7140000   0.96149673   -5.2754518      1728000    1280.3195        35700         1123 
 7150000   0.99583428   -5.3046517      1728000    1282.1485        35750         1124 
 7160000    1.0041471   -5.2005181      1728000    1284.0207        35800         1126 
 7170000    1.0515546   -5.1969104      1728000    1285.8734        35850         1126 
 7180000   0.97747261   -5.2467525      1728000    1287.7324        35900         1127 
 7190000   0.91989522    -5.365106      1728000    1289.5926        35950         1127 
 7200000   0.96165997   -5.2554974      1728000      1291.46        36000         1128 
 7210000    1.0711613   -5.1226692      1728000    1293.3135        36050         1128 
 7220000   0.97322071   -5.2252429      1728000    1295.1576        36100         1128 
 7230000   0.98299585   -5.1356587      1728000    1296.9916        36150         1128 
 7240000   0.98221038   -5.1696578      1728000    1298.8798        36200         1128 
 7250000   0.97602832    -5.233022      1728000    1300.7619        36250         1128 
 7260000     0.963626   -5.1707389      1728000    1302.6063        36300         1131 
 7270000   0.92577545   -5.2799591      1728000    1304.4484        36350         1132 
 7280000    1.0017162   -5.2482663      1728000    1306.2874        36400         1133 
 7290000    1.0212115   -5.1262197      1728000    1308.1195        36450         1134 
 7300000   0.98656854   -5.1516421      1728000    1309.9715        36500         1134 
 7310000     1.039108   -5.2414424      1728000    1311.8056        36550         1134 
 7320000   0.99506712   -5.1398733      1728000    1313.6396        36600         1134 
 7330000    1.0817291   -5.3019317      1728000    1315.4774        36650         1134 
 7340000   0.98594654   -5.2261005      1728000    1317.3105        36700         1134 
 7350000    1.0090491   -5.2986267      1728000    1319.1666        36750         1134 
 7360000   0.95287008   -5.2583976      1728000    1321.0161        36800         1134 
 7370000    1.0724987   -5.2219917      1728000    1322.8467        36850         1135 
 7380000    1.0209271   -5.1404495      1728000    1324.7047        36900         1135 
 7390000   0.99935192   -5.1951103      1728000    1326.5649        36950         1135 
 7400000   0.95010701   -5.2552525      1728000    1328.4374        37000         1135 
 7410000   0.96395983    -5.262803      1728000    1330.2926        37050         1135 
 7420000    1.0227914   -5.2528281      1728000    1332.1476        37100         1137 
 7430000   0.89793923   -5.2172776      1728000    1333.9928        37150         1137 
 7440000    0.9268728    -5.224328      1728000    1335.8383        37200         1137 
 7450000   0.96530178    -5.358298      1728000    1337.6834        37250         1137 
 7460000     1.038431    -5.342415      1728000    1339.5266        37300         1138 
 7470000    0.9742167    -5.276504      1728000    1341.3704        37350         1138 
 7480000   0.98308765   -5.1785063      1728000    1343.2216        37400         1138 
 7490000    0.9888747   -5.3156798      1728000    1345.0514        37450         1139 
 7500000   0.99563107    -5.128912      1728000    1346.9156        37500         1139 
 7510000   0.96561558   -5.2799558      1728000    1348.7533        37550         1140 
 7520000    1.0602142   -5.2972435      1728000    1350.5886        37600         1141 
 7530000   0.97227424   -5.2081098      1728000    1352.4236        37650         1142 
 7540000   0.96263744      -5.3062      1728000    1354.2637        37700         1143 
 7550000    1.0125429   -5.2225484      1728000    1356.0956        37750         1144 
 7560000   0.99711507   -5.1788299      1728000    1357.9323        37800         1145 
 7570000    1.0409346   -5.2153522      1728000    1359.7676        37850         1145 
 7580000   0.98655339    -5.122094      1728000    1361.6146        37900         1145 
 7590000   0.92198644   -5.0842681      1728000    1363.4405        37950         1148 
 7600000   0.95785401    -5.299544      1728000    1365.2874        38000         1150 
 7610000    1.0014476   -5.2237791      1728000    1367.1315        38050         1150 
 7620000    1.0274083   -5.4046236      1728000    1368.9647        38100         1150 
 7630000    1.0526581   -5.3399711      1728000    1370.8025        38150         1151 
 7640000    1.0156267   -5.2719117      1728000    1372.6414        38200         1151 
 7650000    1.0230926   -5.1224159      1728000    1374.4776        38250         1152 
 7660000    1.0274449   -5.2268808      1728000    1376.3216        38300         1152 
 7670000    1.0222262   -5.2947275      1728000    1378.1702        38350         1153 
 7680000    1.0028903   -5.1167943      1728000    1380.0086        38400         1153 
 7690000   0.93525008   -5.2049628      1728000    1381.8455        38450         1155 
 7700000   0.95532991   -5.2762328      1728000    1383.6837        38500         1155 
[...]
47970000    1.0536999   -5.4467983      1728000    9149.6489       239850         1755 
47980000   0.99249433   -5.4249766      1728000    9151.7143       239900         1755 
47990000    1.0320177   -5.2827295      1728000    9153.7497       239950         1755 
48000000   0.97106671   -5.3552009      1728000    9155.7692       240000         1755 
48010000   0.96417152    -5.414421      1728000    9157.8147       240050         1755 
48020000    1.0225809   -5.3776426      1728000    9159.8659       240100         1756 
48030000   0.97446567   -5.3329087      1728000     9161.882       240150         1756 
48040000    1.0447181   -5.2691886      1728000    9163.9294       240200         1757 
48050000    1.0310858   -5.3328455      1728000    9165.9137       240250         1757 
48060000    1.0074172   -5.4259299      1728000    9167.9192       240300         1757 
48070000    1.0596979   -5.3720764      1728000    9169.9523       240350         1757 
48080000    1.0156033   -5.2893797      1728000    9171.9153       240400         1757 
48090000   0.97796136   -5.3802068      1728000    9173.9034       240450         1757 
48100000    1.0552648   -5.3972411      1728000    9175.9088       240500         1757 
48110000    1.0814906    -5.439677      1728000    9177.9355       240550         1757 
48120000    1.0165284   -5.3697223      1728000    9179.9609       240600         1757 
48130000   0.97549121   -5.3712146      1728000    9182.0001       240650         1757 
48140000    1.0540335   -5.4478225      1728000    9184.0225       240700         1757 
48150000   0.95821092   -5.3413692      1728000    9186.0864       240750         1757 
48160000   0.95612799   -5.4185294      1728000    9188.0916       240800         1757 
48170000    1.0068123   -5.4688595      1728000    9190.0853       240850         1757 
48180000   0.97232642   -5.3638737      1728000    9192.0846       240900         1759 
48190000   0.98834429   -5.5742551      1728000    9194.1441       240950         1759 
48200000   0.97841193   -5.2609936      1728000    9196.1928       241000         1759 
48210000   0.98173381   -5.4391856      1728000    9198.2182       241050         1759 
48220000   0.97539488   -5.3613858      1728000    9200.2726       241100         1760 
48230000   0.99530363   -5.3694086      1728000    9202.3141       241150         1762 
48240000   0.97272101   -5.3411186      1728000    9204.3199       241200         1762 
48250000   0.96838497    -5.356185      1728000    9206.3432       241250         1762 
48260000    1.0327844   -5.3911146      1728000    9208.3581       241300         1764 
48270000    1.0339724   -5.3247302      1728000    9210.4003       241350         1764 
48280000    1.0605972   -5.3348339      1728000     9212.444       241400         1764 
48290000   0.94395481   -5.3740345      1728000     9214.447       241450         1764 
48300000   0.95592092   -5.3730526      1728000    9216.4435       241500         1765 
48310000   0.99485978   -5.5985819      1728000      9218.46       241550         1765 
48320000   0.98101145   -5.4548878      1728000    9220.4579       241600         1765 
48330000    1.0103597   -5.4669517      1728000    9222.4557       241650         1765 
48340000   0.92004183   -5.4068648      1728000    9224.4842       241700         1765 
48350000    1.0136092   -5.2833033      1728000    9226.5091       241750         1766 
48360000   0.99934169   -5.3891496      1728000    9228.5412       241800         1766 
48370000    1.0246081   -5.4355851      1728000    9230.5064       241850         1766 
48380000   0.99849746   -5.4213652      1728000    9232.4666       241900         1766 
48390000   0.97424786     -5.32395      1728000    9234.4653       241950         1766 
48400000    1.0314038   -5.2885213      1728000    9236.4298       242000         1766 
48410000    1.0358545    -5.362088      1728000    9238.4022       242050         1766 
48420000    1.0517734   -5.3646931      1728000    9240.4047       242100         1766 
48430000    1.0673817   -5.4527403      1728000    9242.4094       242150         1767 
48440000    1.0550128   -5.3886077      1728000     9244.453       242200         1767 
48450000    1.0074246   -5.3750116      1728000    9246.4874       242250         1767 
48460000    1.0690534   -5.4548361      1728000    9248.5206       242300         1767 
48470000   0.95472365   -5.4088806      1728000    9250.5569       242350         1767 
48480000    1.0383515   -5.4508973      1728000     9252.595       242400         1768 
48490000     1.026888   -5.2699312      1728000    9254.6719       242450         1768 
48500000    1.0134685   -5.2777082      1728000    9256.7143       242500         1768 
48510000   0.98346757   -5.4082458      1728000    9258.7945       242550         1768 
48520000   0.98091641   -5.3196893      1728000    9260.8295       242600         1768 
48530000    1.0228729   -5.3162265      1728000    9262.8626       242650         1768 
48540000    1.0094677   -5.4816158      1728000    9264.8937       242700         1768 
48550000    1.0038845   -5.4963818      1728000    9266.8699       242750         1768 
48560000   0.96431192   -5.3851272      1728000    9268.8506       242800         1768 
48570000    1.0066243   -5.4168403      1728000    9270.8258       242850         1768 
48580000    1.0295375   -5.3337663      1728000    9272.7982       242900         1768 
48590000    1.0193992   -5.2574274      1728000    9274.7576       242950         1768 
48600000    1.0307747   -5.4562632      1728000    9276.7404       243000         1768 
48610000    1.0714956   -5.3493313      1728000    9278.7713       243050         1768 
48620000   0.89455523   -5.3703554      1728000    9280.7688       243100         1768 
48630000    1.0399852   -5.3477988      1728000    9282.7546       243150         1768 
48640000   0.98156515   -5.3495738      1728000    9284.7766       243200         1768 
48650000   0.95844006   -5.3315946      1728000    9286.8102       243250         1769 
48660000     1.005135   -5.3254882      1728000    9288.8031       243300         1769 
48670000     1.015357   -5.2865191      1728000    9290.7962       243350         1769 
48680000     1.006959    -5.245448      1728000    9292.7664       243400         1770 
48690000   0.95373951   -5.5451708      1728000    9294.7512       243450         1770 
48700000   0.96806774   -5.3226893      1728000      9296.73       243500         1770 
48710000    1.0058921   -5.4291284      1728000     9298.737       243550         1770 
48720000   0.98069346   -5.2959766      1728000    9300.7612       243600         1770 
48730000     1.035933   -5.3916564      1728000     9302.764       243650         1770 
48740000    1.0514579   -5.5247031      1728000    9304.7817       243700         1770 
48750000    1.0068516   -5.3364373      1728000    9306.8201       243750         1771 
48760000   0.99801735   -5.3745962      1728000     9308.852       243800         1771 
48770000    1.0367797   -5.4113116      1728000    9310.8554       243850         1771 
48780000   0.92797979   -5.4768935      1728000    9312.9063       243900         1771 
48790000    1.0481465   -5.3618708      1728000     9314.928       243950         1771 
48800000   0.99723229   -5.2353944      1728000    9316.9482       244000         1771 
48810000    1.0428191   -5.4255369      1728000    9319.0207       244050         1771 
48820000     1.000877   -5.4349036      1728000     9321.014       244100         1772 
48830000    1.0206277   -5.4099824      1728000    9323.0071       244150         1772 
48840000   0.99712607   -5.3743985      1728000    9325.0126       244200         1772 
48850000    1.0554336   -5.3124213      1728000    9327.0052       244250         1773 
48860000    1.0270503   -5.4568801      1728000    9329.0149       244300         1773 
48870000   0.99886613   -5.3398109      1728000    9331.0064       244350         1775 
48880000    1.0314308   -5.3051949      1728000    9333.0821       244400         1775 
48890000    1.0285401   -5.3117684      1728000    9335.2911       244450         1776 
48900000     1.028219   -5.4570615      1728000    9337.4293       244500         1778 
48910000   0.95939107   -5.4150233      1728000    9339.5811       244550         1778 
48920000   0.99229678   -5.3283467      1728000    9341.6295       244600         1778 
48930000   0.97754224   -5.3824392      1728000    9343.6305       244650         1778 
48940000   0.98615055   -5.3303515      1728000    9345.6046       244700         1778 
48950000    1.1098949   -5.4520411      1728000    9347.7215       244750         1778 
48960000    1.0009153   -5.2563267      1728000    9349.8392       244800         1778 
48970000    1.0311658   -5.4269614      1728000    9351.9199       244850         1779 
48980000    1.0166907    -5.356609      1728000    9353.9919       244900         1779 
48990000   0.97578236   -5.5287414      1728000    9356.0301       244950         1779 
49000000    1.0038877   -5.2573547      1728000    9358.0584       245000         1779 
49010000   0.97769809   -5.4488735      1728000    9360.0546       245050         1780 
49020000   0.95270402   -5.3341361      1728000    9362.0726       245100         1780 
49030000   0.99666403   -5.1861748      1728000    9364.1566       245150         1780 
49040000    1.0984239   -5.4043467      1728000    9366.1436       245200         1780 
49050000   0.99395952    -5.569773      1728000    9368.1579       245250         1780 
49060000    1.0190152   -5.4473509      1728000    9370.1615       245300         1780 
49070000     1.028592   -5.3689343      1728000     9372.178       245350         1780 
49080000    1.0465625   -5.3936015      1728000    9374.2313       245400         1781 
49090000   0.95955423   -5.4430687      1728000    9376.2636       245450         1781 
49100000   0.97278637   -5.4229494      1728000    9378.3081       245500         1782 
49110000    1.0185749    -5.292661      1728000    9380.3003       245550         1782 
49120000    1.0203377   -5.3322335      1728000    9382.3181       245600         1783 
49130000   0.98378266   -5.3796317      1728000    9384.3493       245650         1783 
49140000    1.0011291   -5.4049599      1728000    9386.3585       245700         1783 
49150000    1.0103115   -5.4801237      1728000    9388.3879       245750         1783 
49160000   0.97171546   -5.3870892      1728000     9390.417       245800         1783 
49170000   0.98896583   -5.3930196      1728000    9392.4328       245850         1783 
49180000    1.0067386   -5.3616179      1728000    9394.4613       245900         1783 
49190000    1.0473865   -5.3647753      1728000     9396.504       245950         1783 
49200000   0.94152306   -5.4260379      1728000    9398.5125       246000         1783 
49210000    1.0083394   -5.4210533      1728000    9400.5235       246050         1784 
49220000    1.0201653   -5.5015589      1728000    9402.5281       246100         1784 
49230000    1.0569744    -5.504762      1728000    9404.5178       246150         1784 
49240000   0.95984871    -5.462892      1728000    9406.4995       246200         1784 
49250000   0.93640989   -5.4591397      1728000    9408.4758       246250         1784 
49260000    1.0099409      -5.4395      1728000    9410.4521       246300         1784 
49270000   0.98045011   -5.3382216      1728000    9412.4128       246350         1784 
49280000    1.0896082   -5.4067707      1728000    9414.3834       246400         1784 
49290000    1.0086153   -5.4747622      1728000    9416.3665       246450         1784 
49300000   0.97663469   -5.4543674      1728000    9418.3759       246500         1784 
49310000     1.021173   -5.3022172      1728000    9420.3827       246550         1784 
49320000    1.0010377   -5.3800842      1728000    9422.4382       246600         1784 
49330000    1.0059683   -5.4222447      1728000      9424.47       246650         1784 
49340000    1.0217037     -5.56013      1728000    9426.5244       246700         1784 
49350000    1.0732755    -5.409844      1728000    9428.5754       246750         1784 
49360000   0.98575991   -5.5161983      1728000    9430.6281       246800         1784 
49370000    1.0079567    -5.426488      1728000    9432.6681       246850         1784 
49380000   0.99740499    -5.512211      1728000    9434.7065       246900         1784 
49390000   0.97603462   -5.4724339      1728000    9436.7162       246950         1784 
49400000   0.98770015    -5.335092      1728000    9438.7711       247000         1784 
49410000    1.0165495    -5.487236      1728000    9440.8459       247050         1784 
49420000    1.0404051   -5.3979436      1728000    9442.9331       247100         1784 
49430000    1.0141797   -5.3132181      1728000    9444.9793       247150         1784 
49440000    1.0306957   -5.3776546      1728000     9447.025       247200         1784 
49450000   0.95641122   -5.4706015      1728000     9449.103       247250         1784 
49460000   0.95167803    -5.359711      1728000     9451.167       247300         1784 
49470000    1.0865238   -5.4643984      1728000    9453.2172       247350         1784 
49480000   0.97292251   -5.3166843      1728000    9455.2839       247400         1784 
49490000    1.0576893   -5.3581556      1728000    9457.3248       247450         1784 
49500000   0.98234243   -5.3369966      1728000    9459.3984       247500         1784 
49510000    1.0284172   -5.3188056      1728000    9461.4606       247550         1784 
49520000    1.0159016   -5.3960532      1728000    9463.4989       247600         1784 
49530000    0.9796594   -5.3906754      1728000    9465.5618       247650         1784 
49540000    1.0373118   -5.3943887      1728000    9467.6102       247700         1784 
49550000    1.0394126   -5.4813761      1728000    9469.7159       247750         1784 
49560000   0.96842065   -5.4156671      1728000    9471.8079       247800         1784 
49570000    1.0207763   -5.3113983      1728000    9473.8898       247850         1784 
49580000   0.95696071   -5.5008734      1728000    9475.9285       247900         1784 
49590000   0.98425181   -5.3428152      1728000    9477.9847       247950         1784 
49600000    1.0590499   -5.3443247      1728000    9480.0276       248000         1784 
49610000    1.0437577   -5.4615112      1728000    9482.0463       248050         1784 
49620000    1.0319234   -5.4202241      1728000    9484.0984       248100         1784 
49630000    1.0473904   -5.4722617      1728000    9486.1254       248150         1784 
49640000   0.97443001   -5.3500674      1728000    9488.2017       248200         1784 
49650000    1.0442845   -5.4500582      1728000    9490.3338       248250         1784 
49660000    1.0146486   -5.4110344      1728000    9492.4244       248300         1784 
49670000    1.0391839   -5.4252276      1728000     9494.509       248350         1784 
49680000     1.014892   -5.3822102      1728000    9496.5716       248400         1784 
49690000     1.013896   -5.5084467      1728000    9498.6369       248450         1784 
49700000    1.0279092   -5.4775964      1728000    9500.7472       248500         1784 
49710000   0.95439693   -5.4552113      1728000    9502.8104       248550         1784 
49720000   0.99227829   -5.4014781      1728000    9504.8664       248600         1784 
49730000    0.9855887    -5.382058      1728000    9506.9498       248650         1784 
49740000    1.0163493   -5.3854509      1728000     9509.049       248700         1784 
49750000   0.97643318    -5.274615      1728000    9511.1341       248750         1784 
49760000    1.0416596   -5.2963688      1728000    9513.2123       248800         1784 
49770000   0.94816244   -5.4364633      1728000    9515.2612       248850         1785 
49780000     1.055358   -5.4680262      1728000    9517.3061       248900         1785 
49790000   0.97982073   -5.3993008      1728000    9519.3416       248950         1786 
49800000    0.9613698   -5.4624729      1728000    9521.3547       249000         1786 
49810000    1.0669668   -5.4406236      1728000    9523.4093       249050         1786 
49820000   0.97060426   -5.4036339      1728000    9525.5368       249100         1786 
49830000   0.97863721    -5.382894      1728000    9527.6589       249150         1786 
49840000    1.0429923   -5.3371188      1728000    9529.7057       249200         1786 
49850000   0.93780209   -5.2663643      1728000    9531.7073       249250         1786 
49860000    1.0153498   -5.4600989      1728000     9533.747       249300         1786 
49870000    1.0356167   -5.4617161      1728000    9535.8176       249350         1786 
49880000   0.98919504    -5.490403      1728000    9537.8991       249400         1786 
49890000    1.0422484   -5.4726461      1728000    9539.9428       249450         1786 
49900000    1.0329064   -5.3821294      1728000    9542.0217       249500         1786 
49910000   0.95214276   -5.3658059      1728000    9544.1049       249550         1786 
49920000    1.0819275   -5.3567163      1728000    9546.1477       249600         1786 
49930000    1.0136162    -5.540693      1728000    9548.2007       249650         1786 
49940000   0.98239473   -5.5009879      1728000    9550.2564       249700         1786 
49950000    1.0037499   -5.3505138      1728000    9552.3027       249750         1786 
49960000   0.98587866   -5.4159909      1728000    9554.3828       249800         1786 
49970000   0.97564373   -5.4934032      1728000    9556.4613       249850         1786 
49980000    1.0161935   -5.3690856      1728000    9558.5879       249900         1786 
49990000    1.0061464    -5.336435      1728000    9560.6649       249950         1786 
50000000    1.0916458   -5.5668604      1728000     9562.762       250000         1786 
Loop time of 9562.76 on 1 procs for 50000000 steps with 500 atoms

Performance: 4517522.357 tau/day, 5228.614 timesteps/s
99.5% CPU use with 1 MPI tasks x 1 OpenMP threads

MPI task timing breakdown:
Section |  min time  |  avg time  |  max time  |%varavg| %total
---------------------------------------------------------------
Pair    | 5156.1     | 5156.1     | 5156.1     |   0.0 | 53.92
Bond    | 1067.3     | 1067.3     | 1067.3     |   0.0 | 11.16
Neigh   | 1490.3     | 1490.3     | 1490.3     |   0.0 | 15.58
Comm    | 33.02      | 33.02      | 33.02      |   0.0 |  0.35
Output  | 15.947     | 15.947     | 15.947     |   0.0 |  0.17
Modify  | 1741.2     | 1741.2     | 1741.2     |   0.0 | 18.21
Other   |            | 58.98      |            |       |  0.62

Nlocal:    500 ave 500 max 500 min
Histogram: 1 0 0 0 0 0 0 0 0 0
Nghost:    0 ave 0 max 0 min
Histogram: 1 0 0 0 0 0 0 0 0 0
Neighs:    16661 ave 16661 max 16661 min
Histogram: 1 0 0 0 0 0 0 0 0 0

Total # of neighbors = 16661
Ave neighs/atom = 33.322
Ave special neighs/atom = 5.976
Neighbor list builds = 2394496
Dangerous builds = 0

################
## ULOOP    ####
################
clear
OMP_NUM_THREADS environment is not set. Defaulting to 1 thread. (../comm.cpp:87)
  using 1 OpenMP thread(s) per MPI task
variable rname delete
variable simname delete
variable folder delete
variable seed delete
variable E delete
variable RW delete
variable SimOutType delete
variable SimInType delete
variable jn delete
variable jf delete

next jbn
Increment via next: value 2 on partition 0
jump SELF #last line!!!

### If e.g. I run this on 10 partitions of 1 processor,
### and initialise the variable with 'uloop N'
### it will run 10 simulations with 'jobnumber' taking
### values 1-10. Then when a particular simulation finishes, the
### script will be run again with the next value of jobnumber,
### until N simulations have been run.
## SO ULOOP IS "SERIAL" BUT FOR SURE 10x1 PROCs ARE ALWAYS BUSY
Total wall time: 2:39:33
